288
Lattice="13.416924024823565 0.0 0.0 0.0 15.151841650807768 0.0 0.0 0.0 14.361742600077466" Properties=species:S:1:pos:R:3:forces:R:3 pbc="T T T"
O        4.72021039       9.15459059       6.54013007       1.27199722      -0.87557422       0.83052618
H        3.96596039       9.45424059       5.96255007      -1.88840929       1.04996529      -1.12548919
H        5.36636039       9.95080059       6.48224007       0.67792918       0.64352259      -0.13699651
O        1.00948039       0.00913599       0.16907107       0.92378879       3.28201226      -1.22015473
H        0.95702739      14.21670059       0.29052707      -0.69483622      -3.99620414       0.55635025
H        0.80138139       0.46390059       1.04402007      -0.04516593       0.30402001       1.58171740
O        6.20711039       3.33887059      10.79229007      -0.00013534      -1.00646248       0.24201393
H        6.91309039       2.59381059      10.96819007       0.17953174       0.32431310      -0.34178827
H        6.57407039       4.20683059      11.19679007       0.52597829       0.97938989       0.63302035
O       10.81691039       1.21880059       1.16634007       0.67350633      -0.43497841      -2.05718209
H       11.46521039       1.84667059       1.59859007       0.82498884       0.64606634       1.17111551
H        9.94782039       1.25067059       1.66995007      -1.36739751       0.20830924       1.25461846
O        2.55355039       7.33079059      13.25579007       0.76880769       1.06729712       0.78962914
H        1.80873039       7.69338059      12.62609007      -0.32656941      -0.51097780      -0.28617363
H        2.49635039       6.32033059      13.30059007      -0.43807428      -0.86393228      -0.35748148
O        2.04069039       6.00437059       9.14973007      -1.35751099      -0.65703706       0.67988503
H        2.42658039       6.89778059       8.88657007       0.21278501       0.90841957      -0.15731397
H        2.78331039       5.35173059       8.98651007       1.11044582      -1.01939382      -0.28055522
O        0.84465139      12.56080059       6.31419007       1.93286726      -0.53747227      -1.10113785
H        0.75054639      13.34020059       6.92976007      -0.03579503       1.27121107       1.41426524
H       13.32351039      12.24020059       6.19145007      -1.71700258      -0.54280402      -0.30922385
O        8.94550039       6.69926059       9.26371007       1.12737842       1.45523855      -0.89592010
H        8.42387039       7.09263059      10.00759007      -1.12426441       1.11711431       1.29494861
H        8.79457039       5.73627059       9.37499007      -0.18511000      -2.88579329      -0.09057842
O       10.42231039       4.76191059       1.81771007       0.39288820       1.04481239       1.27637233
H       11.05661039       4.22460059       2.43999007       0.53095737      -0.31182988       0.10637551
H       10.16011039       4.08194059       1.14610007      -0.67421740      -1.43366353      -1.59241942
O        6.42640039      11.51100059       6.14612007      -0.99933370      -2.41736519       1.99144994
H        6.06386039      12.44100059       6.13330007      -0.82425141       1.52275616       0.20107718
H        7.15832039      11.45790059       5.47826007       1.68163039      -0.30046658      -2.14347823
O        9.01727039       1.94177059      10.62029007      -0.53096514       0.05449696      -0.57551296
H        9.96718039       1.62850059      10.25309007      -0.14918600       0.03107917       0.45921903
H        8.85924039       1.24814059      11.40009007       0.53619088       0.19840875      -0.55509028
O        8.47227039       0.55347359       2.65941007       0.31043936       2.29575135      -0.40282662
H        8.35037039      14.98470059       1.95695007      -0.48631537      -1.23504028      -0.97140390
H        8.30950039       0.12915894       3.56888007      -0.55469394      -0.72943999       0.85113810
O       12.26281039       6.56823059       0.92884407       2.40074180      -0.08985028      -0.47378468
H       11.68671039       7.39889059       0.94455307      -1.21387091       0.93762724      -0.06585880
H       11.66481039       5.77345059       1.13762007      -1.06461590      -0.47442015       0.22827503
O        2.61051039      12.23790059      11.36389007      -0.81868841      -0.40381778       1.77384476
H        3.12719039      12.24310059      10.49309007       0.69615842       0.31113923      -1.41791401
H        3.10315039      12.90020059      12.01339007      -0.10987750       0.30945694      -0.34468560
O        9.57149039      11.78540059      10.14079007       0.82590415       1.00739749       2.12093952
H        9.77622039      12.65210059       9.59736007       0.01942567      -0.09744131      -0.47193180
H        9.19473039      11.10140059       9.51664007      -0.60794683      -0.56590544      -1.18980414
O        6.87418039       3.84785059       2.71547007      -3.19202762      -0.56414431      -1.29586712
H        7.42999039       3.22662059       2.17629007       1.14293903      -0.99957195      -1.07056303
H        7.46750039       4.23749059       3.39099007       1.77326891       1.29536411       1.81230103
O        1.04984039       1.92072059      10.27349007       1.21737734      -0.94662442      -2.19036746
H        0.73631939       1.64874059      11.18439007      -0.38946922      -0.17064775       1.67912507
H        0.60990539       2.87503059      10.11129007       0.31664960      -0.10982469       0.32201598
O       12.70001039       6.52755059       5.04283007       0.94541490      -0.00705792       1.24018639
H       12.91531039       7.10492059       4.19033007      -0.05415259      -0.22726706      -0.29186031
H       11.92781039       5.87044059       4.92838007      -0.55181981       0.22426538      -0.49850612
O        2.55182039      14.38260059       4.71663007       0.36374630       2.18370942      -1.06690279
H        2.02877039      13.56080059       4.78793007      -1.41432493      -2.48828912       0.55479505
H        3.00616039      14.52250059       5.59157007       0.11009777       0.21645536       1.72236066
O        9.68421039       8.97571059       4.37889007       0.78488378       2.72527954       2.54156406
H        9.81895039       8.24258059       5.05731007      -0.09561235      -0.89588980       0.79460496
H        9.61496039       8.58710059       3.50883007       0.01128254      -1.76426652      -3.40437302
O        5.43225039      13.84550059       5.76132007       0.95732972      -0.06558327       0.02820400
H        4.88969039      14.52000059       6.27512007      -0.55802891       1.24572547       1.15198255
H        4.79808039      13.56550059       5.03985007      -0.82100870      -0.77218951      -1.36823355
O        3.89145039       2.52481059       4.98749007       0.01145620       0.92739575      -2.35426498
H        3.16266039       3.16204059       5.31191007      -0.40264241       0.40405799       0.63573711
H        4.16657039       1.90247059       5.70363007      -0.10405818      -0.86060187       1.92952079
O        4.08324039      12.30080059       3.22033007       0.61120826      -1.01076291       1.59389061
H        3.42393039      11.73330059       2.70340007      -0.68909268      -0.30604696      -0.59057373
H        4.27723039      13.08760059       2.63325007       0.14553099       1.03022281      -1.28185327
O        4.08497039       0.61304259      10.05099007      -0.89096351       1.35315166      -1.61942241
H        3.46443039       0.38007459      10.83469007      -0.61119786      -0.48477545       0.49928445
H        4.89014039       0.05876389      10.18909007       1.81042673      -1.32117092       0.37613358
O       10.88031039       4.56583059       5.00505007       1.42261808      -0.53260477       0.17605718
H        9.90829039       4.46600059       4.84714007      -2.25086511      -0.00777552      -0.52151463
H       10.89631039       4.73373059       6.00567007       0.35764654      -0.05995893       1.40466905
O        8.20258039      11.31250059       4.00510007      -0.12332682       2.07631763       0.63577355
H        8.83644039      10.55150059       4.12571007       1.58643342      -1.46879010       0.66665461
H        7.55448039      10.91750059       3.33474007      -1.23451458      -0.16965042      -0.87947820
O        1.32584039       1.96024059       6.74300007       0.59913221      -1.20838232       0.07971785
H        0.42710039       1.64498059       6.26593007       0.44813234       1.07412566       0.27620118
H        1.47165039       2.95800059       6.57274007      -0.20768374       0.85816562      -0.13055687
O        3.08344039      14.78450059      12.42149007      -0.53931661      -1.79463736      -2.32487126
H        2.16776039      14.90580059      12.81549007      -0.82109023       0.55413253       0.75155097
H        3.74749039       0.22175894      12.87589007       0.46688446       0.79894422       1.45965475
O        2.23549039       9.83553059       2.46569007      -0.68753062       1.46521157      -1.58800884
H        2.71030039      10.01210059       3.32977007       0.37242067       0.30585557       1.69689264
H        2.30318039       8.81592059       2.32222007       0.62655691      -0.46676036      -0.36036434
O        9.37636039       0.65331759       6.68722007       2.84564680       1.95164392       1.55775380
H        8.98171039       1.61221059       6.74538007      -0.51686317      -0.25365123       0.10395617
H        8.75430039       0.02477349       6.28754007      -2.01809558      -1.66753926      -1.59913954
O       11.95061039      10.11860059       7.47246007      -0.24914200      -3.22754348      -0.44680634
H       11.57861039      10.76440059       6.81275007      -1.16570083       1.66815438      -1.16841131
H       12.12561039      10.58940059       8.30511007       0.65589904       1.78359905       2.34760320
O        5.22320039       6.39421059       2.63593007      -1.79176959       2.34359815       0.61330268
H        5.86029039       6.67450059       3.37916007       0.89594922      -0.01382161       0.45000121
H        5.41126039       5.47636059       2.37092007       0.59079088      -3.24259570       0.41965788
O        0.79773739       8.02994059      11.02939007      -0.64105394      -0.37945504       2.48748661
H        0.23028739       7.59370059      10.29839007      -0.39384621       0.08020573      -1.09362143
H        1.52173039       8.52981059      10.56289007       1.16278829       0.58801848      -1.28886203
O        4.79898039       0.66020159      14.10769007       0.86289854      -1.04560154      -0.12385470
H        4.75404039       1.55715059      13.71139007       0.05350366       2.51986336      -0.93194954
H        4.51893039       0.78007359       0.69944307      -0.35681590       0.06630681       1.67007335
O       12.29961039       1.15177059       6.25203007      -0.03442819       0.73295059       0.32408962
H       11.26681039       1.13148059       6.30178007      -0.54051465      -0.36042542      -0.22989270
H       12.56281039       0.25409959       5.87734007      -0.40137203      -1.23114245      -0.63003653
O       11.09861039       3.37186059      13.57089007      -1.56805556      -0.56923861       0.73546368
H       11.39421039       2.48820059      14.03559007       0.08051982       0.36391305      -0.32193507
H       11.83741039       3.86559059      13.10289007       1.39264020       0.24008532      -0.47196795
O        3.45107039       2.99453059      12.01529007       1.01191782       1.43212391       2.39210652
H        3.12435039       2.54991059      11.19689007      -0.79858012      -0.72479011      -2.04589196
H        4.20663039       3.66731059      11.70929007      -0.38328745      -0.85140440      -0.09233983
O        5.81580039       5.92524059       0.14375707       0.79945424       0.13896798      -0.03008012
H        4.90421039       5.48389059       0.04188757      -1.17356309      -0.78215710      -0.70313406
H        5.72899039       6.25672059       1.10793007       0.43547047       1.26027864       0.36815931
O        1.46075039      10.44950059      14.02319007      -1.28793432      -0.37072024       1.06258350
H        2.31864039      10.54660059      13.54329007       1.81005537       0.11442528      -1.03441056
H        1.70212039      10.01070059       0.57172307       0.20622935       0.10311651       0.37512336
O        0.62077439      14.68110059       8.36155007      -0.35959405      -2.32908226      -0.19502296
H        0.93435039      14.85940059       9.31026007       0.34691248       0.77429312       0.52636554
H        0.50726939       0.41513459       7.91415007      -0.03116925       1.70620228      -0.05606661
O       11.06061039      13.66280059       1.44545007      -1.45151646       0.36918690       1.69921158
H       10.92131039      14.59600059       1.04040007       0.37916890       0.35792493      -0.11308870
H       11.84951039      13.24210059       1.03202007       1.94755739      -0.77754828      -1.32734701
O        0.14704939      11.70940059       9.58005007      -1.37578182      -0.44480901      -1.47976028
H        0.59973639      11.32960059      10.37489007       0.74946328      -0.64641712       1.56928192
H        0.44943639      12.66750059       9.57701007       0.33064067       0.95496780      -0.09307217
O       11.90561039       4.98692059       8.15582007      -0.37223436       0.93493729      -1.79846432
H       12.55971039       4.73690059       8.88224007       0.62042322      -0.64491071       1.01747722
H       10.99511039       4.88540059       8.61887007      -0.62837383      -0.35417389       0.07073001
O       11.45391039      11.86050059       5.52379007       0.22484741      -0.62032197       2.16566376
H       11.82751039      11.61070059       4.64029007       1.05279688      -0.93927483      -2.10134491
H       10.78281039      12.54840059       5.25210007      -1.12841733       1.54775457      -0.25434498
O        8.99384039       0.51283359      12.76429007       0.81255815      -1.16883889      -0.80149669
H        8.43986039       1.14139059      13.28619007      -0.85979150       1.10764512       1.47232653
H        9.45307039      15.06130059      13.46089007      -0.08172775      -0.39691218       0.37299827
O        3.74614039      11.63220059       8.89288007      -2.89397473       0.76739705       0.46131534
H        3.90160039      12.12290059       8.03450007       0.27097283       0.53240450      -1.02327223
H        4.58742039      11.16880059       9.14996007       2.54429126      -0.88545559       0.29239098
O        3.83201039      14.95000059       2.53007007       1.78808173      -0.69172423      -1.86769404
H        3.63383039      14.67800059       3.48617007      -0.73633603       0.15247786       0.79504847
H        3.27798039       0.61002559       2.33241007      -0.87921016       0.89302416       0.15360998
O       12.33471039       7.72079059       9.05547007       0.54833655      -1.80160523       2.47917501
H       12.15491039       8.47166059       8.46575007      -0.34314349       2.22833295      -1.97363574
H       12.28731039       6.85538059       8.50858007      -0.30405458      -0.84201510      -0.74183131
O        2.08987039       4.78610059       5.92020007       1.43685168      -1.97848844      -0.22461454
H        2.76511039       5.43046059       6.38303007       0.44035585       0.21815321      -0.06843658
H        1.30658039       5.37394059       5.93119007      -2.51040950       1.34010687      -0.27616246
O        3.42205039       4.54514059      14.35079007      -0.39917479       0.85582777       0.06763571
H        3.73592039       3.94262059       0.76134607      -0.00257131      -0.69256806       0.73630940
H        2.98618039       3.90525059      13.66559007       0.04657378      -0.38407952      -0.51395728
O        7.93280039       8.43841059      14.33719007      -0.52530421      -1.02942096       0.02275725
H        7.45700039       9.22476059      13.92299007      -0.78433683       0.96169526      -0.44470214
H        7.48512039       7.57770059      13.99949007      -0.21888282      -0.13632006      -0.41729522
O        6.82549039       5.78543059      12.18579007      -0.64600710      -0.11477550      -1.83486817
H        6.35213039       6.00525059      13.09949007       0.63756816      -0.17479089      -0.25978767
H        7.83997039       5.59418059      12.32999007       0.29746036      -0.13504699       0.59445089
O        8.63117039       5.54808059       3.68406007      -0.80529174      -0.24984890       1.64832714
H        9.46136039       5.40638059       3.12272007       0.51979070       0.34385315      -1.07349479
H        8.25990039       6.52926059       3.61230007       0.29879177      -0.12649234       0.11966051
O       10.93441039       7.45720059      11.69669007      -0.38300270      -0.84511923       1.45224584
H       10.95531039       8.42862059      11.98419007      -0.09290544       0.77398479       0.50668974
H       11.17071039       7.49251059      10.73179007       0.37784783       0.16261221      -2.15452078
O       13.35261039       1.52083059      12.68149007       0.18517209       1.37346190      -0.78246509
H       12.37121039       1.31427059      12.65849007      -1.24189726      -0.30889121      -0.20780653
H        0.29947639       0.99488059      13.47109007       0.31544411      -0.96030293       0.82172382
O        2.47283039      10.40500059       5.23937007       2.62625708      -0.82782177      -1.01529656
H        1.59761039       9.90548059       5.31512007      -1.59504423      -1.15978026       0.24798193
H        2.24507039      11.29400059       5.60741007      -0.45279356       1.81204126       0.88580750
O        9.66817039       7.90044059       6.93026007      -2.34057936      -1.68266924      -0.03662860
H        9.47110039       7.40966059       7.87757007       0.22387672       0.44057924      -0.69866753
H       10.46661039       8.44009059       7.07680007       2.31043105       1.48287873       0.59141387
O        7.23113039       5.94126059       6.71261007      -2.09123768      -2.01466230      -1.33370357
H        7.89471039       6.13167059       5.98605007       1.06445809       0.49480732      -0.53644467
H        7.46210039       6.42455059       7.53444007       0.76800739       1.39354867       1.80590974
O        8.29028039      13.88790059       0.43046907       2.19090277       1.55222281       3.32332110
H        7.72783039      13.89470059      14.01689007      -2.44628440      -0.49773737      -2.95036708
H        8.62850039      12.95980059       0.66484607       0.38976000      -1.09533024       0.20690868
O        8.02245039      14.00370059       4.79550007       1.25153858       1.21817703       0.01093987
H        8.26760039      13.18330059       4.25052007       0.52909371      -1.32831918      -0.52796801
H        7.17091039      13.71740059       5.23065007      -1.49170102       0.20428461       0.51328893
O        1.01079039       0.99522059       2.90291007       0.10550076      -0.03223618      -2.35242978
H        1.18117039       0.33055559       3.61910007       0.48390610      -1.11583250       1.42793309
H        0.76077239       1.83752059       3.36804007      -0.75668001       1.33440717       0.91151023
O       10.35431039      11.78500059      12.89739007      -1.08636311       1.95803661       0.95699143
H       10.12281039      11.94720059      11.91019007      -0.54154885      -0.09576460      -1.01259466
H       10.90801039      10.97280059      12.85339007       1.59896867      -2.00172278      -0.25379578
O        4.30494039       2.67704059       2.15065007      -0.89087193       0.13035005      -2.20325215
H        3.84892039       2.71505059       3.05141007      -0.16617637      -0.02343195       1.26381416
H        5.29658039       2.79198059       2.33834007       0.84004209       0.38476081       0.55247873
O       10.36211039      14.11340059       8.74261007      -0.84104732      -1.38552874       1.23473425
H       11.35681039      14.18810059       8.63951007       1.15320070       0.42771329      -0.26172027
H        9.90182039      14.77630059       8.13434007      -0.13860313       0.95252050      -0.82918272
O        2.73424039       7.31606059       1.93205007      -1.49502226      -0.00842602       0.44071882
H        2.68171039       7.09334059       0.93492907       0.29155472      -0.04958053      -0.73165730
H        3.63502039       7.11740059       2.35076007       1.19774923      -0.62828097      -0.01270764
O       13.04781039      12.52560059      14.13629007       0.55278835       0.52318543       0.91133819
H        0.31065339      11.73210059      14.08239007       0.06925988       0.17088302      -0.10483536
H       12.57451039      12.58760059      13.23689007      -0.44543321      -0.22156092      -0.61145426
O        0.22241639       9.02032059       5.61321007       0.29499452      -0.09215237      -0.18675350
H       12.86431039       9.59258059       5.93835007      -0.09416257       0.55244899       0.49658388
H       13.17491039       8.09236059       5.64235007       0.12621675      -0.53241469       0.09359530
O        0.19716239       7.91956059       3.00104007      -1.47927019       1.14443423       0.39954514
H       13.20531039       7.19297059       2.42404007      -0.61215955      -0.78037713      -1.39874088
H        1.17069039       7.72859059       2.88870007       1.43552731      -0.52500005       0.04036795
O       10.85771039      14.23430059       4.19649007      -0.08338790       0.42742233       2.57288219
H        9.91692039      14.59840059       4.03949007      -0.01300359       0.29160725      -0.01508925
H       11.15211039      14.01640059       3.27811007       0.68664207      -0.53602992      -2.43832435
O       12.77421039      10.87440059       3.19185007      -2.46076427       1.78021709       0.68759429
H        0.20918139      11.22640059       2.83844007       1.74804856       0.01987073      -0.68250214
H       12.75261039       9.88133059       3.12303007       0.62758183      -1.74961892      -0.14735673
O        9.99541039       8.58997059       1.37579007       2.55844072      -1.50881200       1.78146125
H       10.01511039       9.56698059       1.62867007      -0.02500984       1.30849001      -0.04279220
H        9.12733039       8.48518059       0.88133007      -0.90921457      -0.01636134      -0.92179591
O        3.74634039       6.71184059       6.90105007      -1.66133719      -1.40738187       0.57779504
H        4.45088039       6.12681059       7.32910007       1.08294133      -0.31761277       0.39246447
H        4.21271039       7.53469059       6.58806007       1.38984019       1.32388800      -0.68621448
O       11.59021039       1.64687059       9.71310007      -0.89047614      -0.28761640       0.77703953
H       12.57341039       1.52564059      10.01689007       0.56936615       0.13403433      -0.64606857
H       11.50381039       1.92207059       8.74003007       0.69539797       0.21148549      -0.63284094
O        7.86258039       3.36429059       0.11588907       0.97521369      -1.90088767       1.26222094
H        7.57920039       3.21908059      13.52919007      -0.42718825       0.43518079      -1.31487079
H        7.65457039       4.30836059       0.36502607      -0.72244759       1.52979404      -0.12142660
O        6.60580039       1.76388059       4.67920007       1.60349443      -0.78194762       1.20221767
H        5.62944039       1.70219059       4.76848007      -1.84433996       0.06623566      -0.39550975
H        6.87658039       1.68073059       3.72666007       0.19151501      -0.25756369      -1.64838409
O        7.82961039       2.95083059       6.54118007       1.22944292       0.82772458       1.18488241
H        7.15367039       3.69887059       6.67464007      -0.57478482       0.87740115       0.15485714
H        7.44106039       2.38960059       5.79302007      -0.82692754      -0.74754559      -1.32407812
O        7.38155039       7.82945059       3.43826007      -0.59195530      -0.69002392       2.10571939
H        7.51205039       8.02885059       2.47488007      -0.20518442       0.92772131      -1.84700402
H        6.70852039       8.50686059       3.84222007       0.34106474       0.44823283      -0.36659554
O        4.30302039      10.14360059      12.13519007       0.39357366      -0.28885587       0.46498022
H        3.56151039      10.81630059      11.83839007      -0.34891379       0.45523853      -0.45164021
H        4.29796039       9.34976059      11.47919007      -0.38002938      -0.20228484      -0.29212520
O        3.93426039       0.52385159       7.12501007       1.95037577      -0.75449415      -1.29079218
H        4.00180039       0.47150959       8.12519007       0.34278621      -0.48546176       2.21371081
H        3.06241039       0.97114059       7.04926007      -2.98078125       1.30013867      -0.53898565
O        9.31518039       3.93131059       8.53887007       0.27252275       1.34383507      -0.98602391
H        9.25129039       3.19666059       9.20889007      -0.34389385      -1.20986083       1.49081767
H        8.75120039       3.55894059       7.73054007       0.25182904       0.19062472       0.25112320
O        8.30401039      10.77770059       7.94632007       0.00807109       0.33372997       0.85571820
H        8.75443039      10.00780059       7.47362007       0.28742025      -0.95725866      -0.78499616
H        7.58102039      11.19120059       7.30229007      -0.01761757      -0.10230665      -0.15127018
O        6.19710039      10.22970059       2.53344007       2.03492773      -1.12546019       1.38895228
H        5.23476039      10.38670059       2.61660007      -2.29505839       0.75610645       0.26450200
H        6.38485039      10.40480059       1.55732007      -0.07587094       0.12098121      -1.55626396
O        4.89659039       7.47487059      11.40969007      -0.02871447      -0.21179095      -0.38259150
H        4.40186039       7.57012059      12.28429007      -0.93005213      -0.00602988       1.14573035
H        4.94568039       6.44676059      11.28229007       0.22573118       0.11713571      -0.04974234
O        6.08446039       8.00007059       9.11757007       1.58117862      -0.60337340      -0.91546271
H        5.50165039       8.41578059       8.39304007      -0.49149816       0.20595719      -0.08843971
H        5.54133039       7.93662059       9.98129007      -0.52833460       0.20871266       0.13152893
O       13.05631039       5.46908059      12.68139007       0.97496278      -2.91442265      -3.76002212
H       12.95221039       5.87275059      13.52589007      -0.67146474       2.28187236       4.59668826
H       12.95961039       6.22962059      12.02019007      -0.36986658       0.99121807      -0.25638632
O        9.30296039       5.36965059      12.77629007      -0.57778500      -0.69897255       1.01039501
H        9.82705039       4.72858059      13.40759007      -0.00991514      -0.23202981      -0.41105992
H        9.96931039       5.89556059      12.25149007       1.32330091       1.15492448      -0.64432789
O       12.54611039       9.83726059      12.63509007      -1.57304168       0.89368407       0.34339659
H       12.88641039       9.12702059      12.00449007       0.94637840      -0.76559502      -0.68328501
H       13.32811039      10.08710059      13.25239007       0.38137238      -0.42974783      -0.01207777
O        5.91027039      10.76950059      14.29439007       1.02197424      -2.02406178       2.22956610
H        5.31995039      10.35800059      13.60809007      -1.27593264      -0.53064387      -1.55132095
H        6.10979039      11.68060059      14.02439007       0.38702049       2.94491439      -1.13374174
O        6.04114039      13.62840059      13.19879007       0.44820896      -1.47341379      -0.07005107
H        5.97549039      13.67390059      12.17699007       0.13966951       0.20377547      -0.55917066
H        5.61826039      14.49220059      13.54349007      -0.30059844       0.52026587       0.25204544
O       12.64721039       3.35745059       3.31023007       0.27341350      -1.05071543      -1.31338870
H       12.19121039       3.74464059       4.13739007      -0.22336391       0.43748497       1.03557212
H        0.01625869       3.95992059       3.05704007       0.18677804       0.64584435       0.13774036
O        4.49058039       3.36285059       8.79915007      -2.07283790       1.58650449      -2.46859521
H        5.20362039       3.34978059       9.48595007       1.61892669      -0.36186552       1.44067619
H        4.19947039       2.40534059       8.66065007      -0.12060034      -0.54637525       0.23029343
O        0.09632939       4.29351059      10.25199007      -0.18179004       0.49964683      -1.44952950
H        0.79553039       4.95382059       9.82473007       0.36439465       0.36129529       0.35058915
H       13.36241039       4.59266059      11.20909007       0.09294349       0.08865724       1.08472266
O        6.65327039      13.98550059      10.17069007      -1.28677898       0.95270823       0.01248945
H        6.86667039      12.99490059      10.21209007       0.58064940      -1.06439183      -0.23236783
H        7.53083039      14.50340059      10.11389007       0.70468230       0.03017610       0.06716058
O        6.11887039      10.76330059       9.73309007      -1.65105479       2.39086543       0.99231976
H        5.98880039      10.29890059      10.62619007       0.25845110      -0.52978540       0.45589589
H        6.81051039      10.32930059       9.17564007       1.79130099      -1.30884016      -0.97175629
O        9.55687039      11.41120059       1.20697007      -0.78863771      -0.71552283       2.11533175
H       10.42391039      11.73550059       1.68838007      -0.36933543       0.22862945      -0.18142317