288
Lattice="13.558136690224863 0.0 0.0 0.0 15.311314264745633 0.0 0.0 0.0 14.512899448592325" Properties=species:S:1:pos:R:3:forces:R:3  pbc="T T T"
O        3.78172672      12.26463690       2.36604849       1.92141114       1.56769313      -0.40594923
H        3.68537672      11.31493690       2.09884849      -0.78744310      -2.08165786      -0.34996021
H        2.93647672      12.60703690       2.79240849      -1.11176871       0.14007045       0.30926273
O        9.63712672       8.68468690       9.83393849       0.61113528      -2.01137635      -2.03731447
H       10.07191672       9.27037690      10.50826849       0.56365657       1.06584397       1.48788628
H        8.65551672       8.91074690       9.70190849      -0.79829864       0.16478564       0.55890793
O        9.04358672      11.49263690       9.23490849      -1.25811213       2.45864651      -2.53819811
H        8.22134672      11.72263690       9.79460849      -0.92642010       0.24581347       0.73617467
H        9.53986672      10.79583690       9.65785849       1.95162029      -2.92535819       1.63863660
O        0.91055872       9.98886690       4.83763849      -0.55940335       1.62318961       0.24691111
H        1.92522672      10.00510690       4.95005849       0.93567622      -0.02101134       0.00926860
H        0.75221872       9.02427690       4.62446849      -0.41012976      -1.33418304      -0.15198575
O        8.64067672       8.80373690      12.66036849       0.07358523       1.73485275       2.37207655
H        8.18043672       8.55015690      11.84186849      -1.00023217      -0.80916048      -2.51771624
H        9.38714672       8.13228690      12.81176849       0.60710500      -0.59017615      -0.48376006
O       11.16221672       7.01964690       4.82265849      -1.23191596      -0.30113247       0.07720944
H       11.29641672       7.26112690       3.82205849      -0.27576013       0.20720918      -0.45184455
H       12.08231672       7.07213690       5.19614849       1.53288276       0.17586311       0.74344107
O        3.83695672       5.66269690       3.41519849       0.26519642      -0.57448359       1.20636776
H        3.29259672       6.25310690       2.79180849      -0.62698954       0.60163907      -1.22020881
H        4.79537672       5.95454690       3.28404849       0.95107554       0.35045850       0.17425679
O        6.90118672       1.38627690      12.08446849      -2.12313235       0.71870491      -0.32791607
H        7.82742672       1.01739390      12.13426849       1.69963139      -0.61069971      -0.17289625
H        6.66856672       1.62640690      13.06876849       0.38922772      -0.28397264      -0.16490424
O        2.40009672       9.53425690       9.80618849      -1.40060900       1.15814768      -0.83140157
H        2.83456672       8.82458690       9.21575849       0.82450385      -0.70158032      -0.99139926
H        2.72068672       9.29183690      10.71906849       0.60961036      -0.08733305       1.70027514
O        0.13921042       5.12464690       1.52902849       0.84619783       0.88073052      -0.14480759
H       13.26891672       4.75948690       2.38584849      -0.67203661      -0.60446798       0.16616061
H       13.25921672       4.72109690       0.69882049      -0.55830297      -0.48589356      -0.01718636
O        9.79548672      13.76463690      13.74836849       1.40267573       0.28755202       0.30242392
H        8.94628672      13.34903690      13.42376849      -1.65852688      -0.74206977      -0.33127502
H       10.44961672      12.94403690      13.91956849      -0.63843356       0.09559512      -0.18104586
O        1.96035672      14.07683690       3.68388849       1.79719244      -0.62161540      -1.21801911
H        0.99908272      14.31483690       3.61698849      -1.75595321       0.16374369       0.66800943
H        2.27540672      13.70753690       4.57002849      -0.65862956      -0.30409087       1.21948871
O        9.12411672      11.77533690       3.58815849       0.86003485       3.92704020       1.22715595
H        9.07442672      10.82473690       3.42206849      -0.45293672      -3.59833001      -0.74694071
H        8.15344672      12.11453690       3.60167849      -0.57696727      -0.12269944      -0.61741388
O        6.81624672       6.28099690      11.25386849       0.98331231       1.88277345      -0.23315998
H        6.57731672       5.72316690      12.03396849      -0.56896766      -1.11964700       1.57208756
H        6.62379672       5.72205690      10.45216849      -0.48420535      -1.18821052      -1.24404444
O        1.07551672       4.22122690      11.90856849      -0.70656249       1.10332437      -1.02357176
H        1.41136672       3.89720690      12.82336849       0.48029099      -0.64956837       0.85298778
H        0.89830772       3.44114690      11.27196849       0.31253654      -0.63753605       0.04195023
O       11.37071672       3.07034690      14.11976849       0.42759885       2.27139226       1.56163060
H       10.92421672       2.27107690       0.00256905      -0.71449042      -1.71878618       0.32991980
H       11.63111672       2.81555690      13.18366849       0.59107246      -0.37541266      -1.45532308
O        7.27402672      12.77493690      12.83976849       0.84807198       0.48317763       0.41396962
H        7.33790672      13.03823690      11.85636849      -0.08233152       0.35821331      -1.04901483
H        6.28183672      12.80283690      13.08566849      -0.99814646       0.13275843       0.13017979
O       11.56741672      10.68943690      11.08046849      -0.52056682      -0.92977518      -2.27608560
H       11.33151672      11.42223690      11.72016849       0.06024407       0.94278793       1.31384749
H       12.19511672      10.04385690      11.54266849       0.64659859      -0.47107339       0.57310382
O        7.27961672       5.41280690       7.32459849      -0.85882188       1.42186233      -0.24770076
H        7.54892672       4.42740690       7.41219849       0.71897015      -0.64346607      -0.03728838
H        8.11367672       6.04742690       7.18084849       0.01465131      -0.30228868       0.11603200
O        3.21612672      10.13713690      12.45886849      -0.00722983       1.19322200      -2.87401977
H        2.84111672       9.88898690      13.31586849      -1.00464519      -1.08142091       3.10333995
H        4.18069672       9.83266690      12.48206849       1.07658963      -0.49150204       0.38160716
O       12.07051672       9.47606690       7.99090849      -0.45308871       2.74890446      -1.27381773
H       12.12161672       9.97895690       8.88358849      -0.11674502      -0.34323274       0.61903546
H       12.21471672       8.50671690       8.11077849       0.39824817      -2.36439689       0.65039040
O        4.58077672      12.83233690      13.63856849       2.16333055       0.81313229       0.80549178
H        4.38560672      12.00353690      14.18626849      -0.54690376      -0.64686415       0.35148571
H        3.84240672      13.00003690      13.00216849      -1.89721000       0.00284857      -1.11657161
O        1.85028672      12.59753690      12.09016849       2.82075692       0.45651593      -0.20660620
H        2.06032672      11.59523690      12.17956849      -0.20137912      -0.41960660      -0.06616108
H        0.89412372      12.77563690      12.08126849      -2.76787006       0.10028339       0.10782830
O        9.65894672      13.61413690       6.10101849      -1.25820275       2.21131131       1.19554074
H        9.30362672      13.21763690       5.26996849      -0.09647007      -1.15731458      -1.96616879
H       10.46781672      13.12773690       6.37867849       1.79317787      -1.58089819       0.31062938
O        0.75718272       6.86427690       5.81511849      -1.69700561       0.42822231      -2.74689114
H        0.85207172       6.93033690       6.78644849       0.67358966       0.27853175       2.94794634
H        1.70260672       6.91074690       5.47828849       1.25041941      -0.05991449      -0.31396559
O       10.99301672       3.31435690       7.55532849      -1.11802559       1.87995143       2.12962267
H       11.64331672       3.88261690       7.05646849       1.08856929       1.01017970      -1.24290982
H       10.98781672       2.42863690       7.11299849       0.22451644      -2.17010716      -0.84472086
O        7.65980672       5.62608690       2.52178849      -1.25704748      -0.75032280      -0.87952602
H        8.65557672       5.49091690       2.38060849       1.15243303      -0.14334704       0.18475866
H        7.41879672       6.11399690       3.38875849       0.23082851       0.84108101       0.51270275
O        0.90938972       0.42669190      13.88306849      -1.26203102      -0.47969931       2.40515924
H        0.60192872       0.59779290      12.96076849      -0.16996476       0.49902201      -2.33765988
H        1.89651672       0.51208690      13.98036849       1.43781658       0.15551970      -0.25299126
O        4.57235672       2.12627690       4.36608849       1.51751074       0.78685085       2.67364883
H        5.52600672       2.35335690       4.01119849       0.56708492       0.48863946      -0.12112376
H        4.10669672       1.70280690       3.63579849      -2.10228836      -2.07426342      -3.15678009
O        0.30307472       0.53908890      10.78366849       1.01310836       0.51504011       0.99239989
H       13.42331672      14.96263690      10.51376849      -0.75618732      -0.57564114      -0.53032749
H       13.47956841       1.32612690      10.23346849       0.04255085      -0.21848755      -0.30250230
O        7.03453672       1.76272690       0.32984149      -1.15569876      -1.94442902       0.25605524
H        7.00240672       2.74326690       0.34911649       0.24265885       2.64707537       0.46605723
H        7.98306672       1.45317690       0.48425349       1.74946582      -0.40739254       0.35184500
O       13.51061672       0.80751290       4.46787849      -2.13145508      -1.87809826      -0.07015931
H        0.44928003       0.37457390       5.23235849       0.44450195      -0.35547375       1.27200417
H        0.48491172       1.57295690       4.24687849       2.03854212       3.10199351      -1.07854018
O        3.46592672       2.33514690      10.67616849       0.00776361       1.37097994       0.74516648
H        4.02962672       2.63813690      11.49096849       0.06402746       0.43875284      -0.08997699
H        3.34209672       1.34118690      10.87926849      -0.21501847      -0.90314921      -0.06387320
O        7.92735672      10.78963690      14.43703494       0.11066570      -0.52494983       2.08140853
H        8.35384672      10.13713690      13.77736849       0.06662068      -0.36015511      -0.55699723
H        7.76426672      11.63553690      13.88896849      -0.02636916       0.20448489      -0.38860035
O       11.66881672      11.82813690      13.62036849      -1.52630524       1.79285156      -2.30646305
H       11.86411672      10.94443690      13.95156849       0.76117149      -2.73122939       1.59607693
H       12.05731672      12.57423690      14.20676849       1.42736581       0.30295582       0.89360497
O        3.02359672       0.79560690       2.37624849       0.36481983       2.86826003      -0.22757013
H        3.58308672       0.54661090       1.55056849       0.45495282      -0.49939808      -0.59214005
H        2.63515672      15.27899656       2.76830849      -0.36306103      -1.52402575       0.59884332
O        7.11451672       2.84533690       3.80291849      -0.93268002       0.06484936      -0.95037543
H        7.90920672       2.86475690       4.43367849       0.95957917       0.25484554       0.28492986
H        7.22113672       3.60384690       3.07326849       0.39062035      -0.00554944       0.54771099
O        8.03439672      14.75153690       7.92853849       1.18925526      -0.10566978       1.79686443
H        8.49521672      14.54263690       7.05891849       0.76890838      -0.73292650      -1.12393630
H        7.18670672      15.18633690       7.66323849      -1.80882045       0.93191599      -0.60420962
O       10.67571672       7.56446690       2.11502849      -0.23192590       1.64871955       1.27710416
H       10.57771672       6.59413690       1.86472849      -0.07330893      -1.47792601      -0.92916783
H       11.35141672       7.96278690       1.45362849       0.46772228      -0.11276527      -0.51472850
O       12.18101672       8.37940690      14.45056849      -1.68292081       1.50257981       0.38249811
H       11.40041672       8.04460690      13.81676849       0.13953585      -0.55638260      -0.23734224
H       12.99911672       7.90270690      14.20026849       1.90831768      -1.34533080      -0.96887121
O        7.06606672      13.20303690      10.13246849       1.81801944      -0.50632774       1.28439207
H        6.09937672      13.00553690      10.01792849      -1.77309530      -0.09398040      -0.80021290
H        7.35786672      13.86003690       9.40234849      -0.23131060       0.41974911      -0.62856940
O        8.56896672       9.29466690       2.61220849      -1.30136732       0.51554371       1.71900824
H        8.09340672       9.60599690       1.77439849      -0.06578296       0.49414782      -1.30396964
H        9.36370672       8.71834690       2.36822849       0.86309118      -1.07037166      -0.57854113
O        6.15827672       9.96059690       4.42438849       0.67805158      -1.54722459       0.50103911
H        6.19838672      10.96133690       4.32170849       0.12042893       1.70936756      -0.35316931
H        6.86545672       9.60380690       3.76278849       0.39904533      -0.19066327      -0.21719220
O        2.34119672       3.95649690      14.30296849      -3.06323418       1.20096885       0.18081682
H        2.08402672       3.36659690       0.56957249      -0.41778103      -0.49778251       0.85864843
H        3.29153672       3.78819690      14.17896849       3.23059680      -0.80756926      -0.63321942
O        2.61251672       9.61532690       1.25794849       1.76614650       1.38456061      -0.69994370
H        2.86989672       8.64183690       1.34019849      -0.18061323      -1.01165195       0.08251090
H        1.64138672       9.74670690       1.54384849      -1.06619031      -0.23777387       0.32253721
O        6.33036672      12.50983690       3.54939849       0.17553013      -0.93485992       0.22731401
H        6.58109672      13.48413690       3.75909849      -0.14144678       0.90823161      -0.01771364
H        5.47853672      12.54043690       2.93598849      -0.31521092       0.05544917      -0.03361740
O        9.76899672       5.08567690       9.51272849      -1.29347985       1.20314490       1.73308134
H        9.30254672       5.86787690       9.00857849       0.21231778      -0.17622169       0.09518585
H       10.29531672       4.60458690       8.82186849       0.71785139      -0.93246814      -1.44894693
O        9.54333672       0.55518490      11.79376849      -0.50678591       2.28757585      -1.88940271
H        9.64876672       0.02762263      12.60856849       0.74089655      -1.96271068       1.95877466
H        9.71642672      15.23755616      10.98296849       0.03324909      -0.79255297      -0.00938400
O        2.48658672       6.64364690       1.30854849      -0.82210060       2.86233521       1.37462068
H        1.47284672       6.40383690       1.43648849      -0.08122099      -0.40748835      -0.09413274
H        2.82124672       5.91122690       0.75899149       0.71069832      -2.25782968      -1.63900717
O        6.88004672       4.78181690       0.00106905      -0.58220236      -0.54342535      -0.98454886
H        7.71104672       4.57496690      13.92776849       0.58400149       0.26732169      -0.26165070
H        7.19007672       5.24951690       0.85866449       0.19577882       0.42232346       0.89105005
O       12.18471672      11.75303690       6.12335849      -1.02581585       1.71203780       0.31619239
H       11.99671672      10.92893690       6.67883849      -0.19269200      -1.26493959       0.54415504
H       13.09121672      11.60253690       5.72525849       1.39872989      -0.62143465      -0.50057928
O       13.49561672       9.91498690       1.65134849       1.20626468      -0.32826450      -1.01102289
H       13.02411672      10.37193690       2.39066849      -1.11558269       0.78724081       1.45431950
H       12.86751672       9.28366690       1.10780849      -0.25480325       0.52858672       0.29567962
O        0.10698003       8.15849690      11.29676849      -1.86296533       1.06735444       1.41468733
H        0.91241172       8.27178690      10.73956849       1.83045524       0.42746042      -1.31496191
H       13.51131672       7.16600690      11.31336849      -0.32288949      -1.19664611      -0.10594376
O       11.75271672      12.58133690       3.53530849       2.00400988       0.75181753      -1.37284453
H       11.89111672      12.58933690       4.54316849      -0.21552940      -0.24068947       0.66818545
H       10.81271672      12.23883690       3.41484849      -1.55867167      -0.39994660      -0.07733144
O        4.96225672       5.53992690       8.83053849      -0.43553040       0.10166724       1.33827406
H        5.82853672       5.54081690       8.26405849       0.54646520      -0.31278423      -0.70843677
H        4.37052672       4.72776690       8.61717849      -0.06872219      -0.28076719      -0.23502447
O       10.06641672       2.13981690       4.29195849      -0.81820240       0.60757134       0.42019733
H       10.14531672       1.79739690       5.27195849       0.17566699      -0.30068742      -0.16893425
H       10.26101672       1.29521690       3.73705849       0.35463205      -0.75625662      -0.33450744
O        4.15906672      11.56263690       6.88699849      -0.76056107       1.79607085       0.10852213
H        4.14324672      10.59383690       7.02331849      -0.39467773      -2.70188045       0.29353341
H        5.06020672      11.70213690       6.47600849       1.61702451       0.43772693      -0.50197725
O        7.99771672       2.82599690       7.27123849      -1.04667167       0.92554477      -0.70067043
H        7.55341672       1.93281690       7.11337849      -0.43838504      -1.13768671       0.04184866
H        8.94328672       2.68673690       7.54801849       1.42208523      -0.30711422       0.55512753
O        7.31294672      11.34393690       6.87904849      -1.66396777      -0.77581824       0.19962266
H        7.90010672      11.16623690       7.70239849       0.88779692       0.58124857       0.36111955
H        7.70834672      12.04953690       6.29690849       0.99069025       0.90133210      -0.53326167
O        6.48253672       6.95464690       4.61875849       0.52270187       0.37003914      -2.55224948
H        6.39748672       6.21475690       5.24707849      -0.30048844      -1.95810396       2.18905883
H        6.30819672       7.78829690       5.13792849      -0.33224262       1.28038136       0.83486908
O        6.67924672       8.79870690       7.34841849      -2.16458170      -0.06233715       1.55809595
H        6.77310672       9.72346690       6.93170849       0.43769300       0.84987249      -0.96083271
H        7.36309672       8.21054690       6.94692849       1.84469635      -0.97144342      -0.84056444
O        4.58798672       3.05544690       6.84207849      -0.53699354       1.05859700       2.75060113
H        4.57805672       2.73807690       5.91903849      -0.38423828      -0.55533582      -2.86815908
H        5.53112672       3.35071690       7.00738849       1.09732989       0.41802424       0.30520800
O        4.36987672      12.85293690       9.38806849       0.15179072       0.93047419       0.35418992
H        4.21615672      12.15743690      10.09956849      -0.42231384      -0.93191102       1.09422731
H        3.97798672      12.36403690       8.57699849       0.02748078      -0.24841726      -0.98042163
O       13.38491672       4.29389690       6.01155849      -2.37549297      -0.25660366       1.37281195
H        0.72437672       4.02475690       5.68702849       2.29812259      -0.56278318      -0.84660621
H       13.38272041       5.32454690       5.94395849       0.62287171       0.47120746       0.04423164
O       11.56521672       2.36384690      11.53486849       0.06292949       1.36854898       0.92595075
H       11.98721672       2.24145690      10.63246849       0.26223338      -0.14162288      -0.73564760
H       10.78211672       1.70767690      11.64266849      -0.61873321      -0.91281214      -0.22250634
O        0.25266572      15.26756966       7.02920849       0.05824345      -0.02302609      -0.44475224
H        0.75917272      14.36563690       7.12522849       0.35506650      -0.33979995       0.24560060
H        0.10967972       0.32843290       7.96806849       0.22372003       0.05219506       0.70633949
O       10.31411672       4.89061690       1.75710849      -1.56344960       1.36142969       0.00806726
H       10.64321672       4.12345690       1.20144849       0.64012221      -0.94702203      -1.10609489
H       10.84071672       4.85540690       2.64094849       0.80305687      -0.51312238       0.90794517
O        2.61838672       6.38276690      10.86176849       0.01580132       2.36449095      -0.61333590
H        2.01981672       5.70434690      11.27466849      -1.28734669      -1.65443185       1.05746393
H        3.51221672       5.95829690      10.95626849       1.71830903      -0.61558075      -0.03038785
O        1.80184672      12.83243690       6.64803849       0.14004205       2.84008181      -2.06223243
H        1.27530672      12.19383690       7.18317849      -1.05481710      -1.56452702       1.53025653
H        2.76191672      12.49703690       6.61206849       0.60095927      -0.50263328       0.09056909
O        3.09627672      15.09633690      10.61486849      -0.09307282      -0.33847136       0.34861425
H        2.19248672      14.71153690      10.92066849      -0.37654595       0.18786394       0.12256051
H        3.51386672      14.28063690      10.15946849       0.39139161      -0.73853162      -0.44565073
O        5.64065672       8.65118690      13.38106849      -1.77141086       0.44206023      -0.38951814
H        6.49590672       8.67749690      12.85946849       1.20774182       0.18229634      -0.53261422
H        5.88472672       8.05011690      14.14496849       0.22583291      -0.67960496       1.01934900
O        6.61640672      15.11133690       4.00910849      -0.96005876      -2.51280386       0.87165141
H        7.20715672       0.52575690       3.75648849       1.48660257       2.47773029      -0.83075804
H        5.70367672       0.17203890       4.28201849      -0.21718307       0.46172252      -0.00818379
O        9.21616672       7.44778690       6.88038849      -2.11800060       0.12437112       1.41019075
H        9.76358672       7.13005690       6.12162849       1.67624289      -0.45527295      -1.99963278
H        9.85482672       7.89550690       7.53289849       0.59112086       0.45034258       0.56101472
O       11.55701672       0.00959260       2.78541849      -0.91597447       0.47168498      -0.67384636
H       11.65991672      14.28703690       2.82580849      -0.28052067      -0.54394111       0.20123853
H       12.33671672       0.32487390       3.37872849       0.29711717       0.28210452       0.24777467
O        5.82589672       0.53695490       6.90042849       1.30991142      -1.82622125      -0.40421127
H        5.53268672       0.82336390       7.82306849      -0.58638328       0.84395303       1.33323576
H        5.31912672       1.08440690       6.25265849      -1.00605582       0.89302992      -1.10468343
O        4.81418672       3.21243690      13.56456849      -1.05732777       1.05097918      -0.71794702
H        5.00460672       2.23737690      13.63066849      -0.07238089      -1.76845036       0.20704750
H        5.71678672       3.67506690      13.67506849       0.48106283       0.65438144       0.27302235
O        9.79896672       0.73375190       0.50629549      -0.72889170       3.24441519       0.70695023
H       10.42531672       0.56848990       1.29313849       0.64170195      -0.41130166       0.88319200
H        9.73118672      15.16692616       0.04061759       0.06739593      -2.27403691      -0.71230346
O        1.37721672       6.06765690       8.44222849      -0.94734822      -0.08665429      -0.74299889
H        1.64067672       5.08271690       8.25488849       0.17977905      -0.29120957      -0.08138427
H        1.89867672       6.24797690       9.31757849       0.52079072       0.32187727       0.61868540
O        0.49849572      11.43853690       8.60364849       0.13903626       2.57731576       1.14485274
H        1.25714672      11.14093690       9.21726849       0.72417118      -0.60780031       0.62245906
H        0.32640472      10.65953690       8.04618849      -0.75832037      -2.63009461      -1.43465098
O        2.42630672       3.30761690       8.38945849      -1.98176149       0.57486635       0.82013732
H        3.16290672       3.18211690       7.74140849       1.34981454       0.02918235      -2.21759233
H        2.84209672       2.68940690       9.09652849       0.01790755      -0.18179185       1.43789784
O        9.91777672      13.99203690       9.71910849       2.16327432       1.02305330       1.62071780
H        9.20599672      14.35063690       9.13288849      -1.41600663       1.00365173      -1.57646404
H        9.71585672      12.99833690       9.71636849      -0.37612405      -1.41916911      -0.04628631
O        3.82881672       9.01351690       4.83027849      -2.93560474       1.13806040       2.91716673
H        4.76893672       9.35422690       4.79727849       1.66659739       0.29008204      -0.93085392
H        3.63266672       8.32729690       4.17342849       0.05137887      -1.84270398      -1.91813925
O        8.80749672       4.28218690      12.50806849      -0.93640726       1.43811203      -0.16879954
H        9.47282672       3.54946690      12.44286849       1.39162638      -1.48160855       0.23503766
H        8.90187672       4.69294690      11.55806849      -0.21959159       0.20200320      -0.16943071
O       11.16371672       0.85904190       6.69486849      -2.34961592       1.08120664       0.35936725
H       10.89991672      15.25785416       7.01197849      -0.60809674      -1.10131479       0.47930942
H       12.08991672       0.72720790       6.41900849       2.81238788      -0.42683820      -0.97410220
O        3.99908672       7.95761690       8.17707849      -1.30652455       1.16911338      -0.14471346
H        4.78049672       8.34484690       7.64467849       0.59685730      -0.04431401      -0.20185141
H        4.32296672       7.05005690       8.53034849       0.29159926      -0.82633113       0.08867119
O       10.53741672       6.97846690      12.79396849       1.26444313       2.17973301      -0.18534423
H       11.21841672       6.51398690      12.14466849      -0.01338483      -0.74867035      -0.17116873
H        9.90994672       6.32233690      13.16506849      -1.15655758      -2.22899287       0.71161843
O        2.18002672       3.75688690       4.28749849      -2.03717369       0.93297400       0.48195153
H        2.88290672       3.04635690       4.22845849       1.00609567      -0.54593187      -0.05194353
H        2.71126672       4.65503690       4.08476849       0.10552452      -0.80595286       0.12863509
O       12.65201672      13.49533690       9.97712849       1.49635879       0.28660073       0.56731885
H       13.02411672      12.63973690       9.53324849      -0.15630226      -0.29441340      -0.22908091
H       11.64861672      13.53293690       9.87953849      -1.01129457       0.07934617      -0.34097474
O        6.74724672       8.90027690      10.26716849      -0.07269464       0.56662501       0.36196520
H        6.75138672       9.08494690       9.24187849      -0.42236212      -0.30544647      -0.30711803
H        6.33141672       7.94651690      10.37896849       0.07810356       0.18033680      -0.04784719
O        4.73278672       0.31127190       0.23164049      -0.70004481       0.26716956      -0.28334988
H        5.60401672       0.75862790       0.58006905       0.43649215      -0.18934961      -0.01559337
H        4.97807672      14.69793690      14.34629394       0.06639216      -0.26500559       0.10321250
O       13.20511672       2.93790690       9.31711849      -1.49603712      -0.68117096       1.89801163
H       12.47081672       3.00573690       8.60731849      -0.62310909       0.18373044      -0.70357785
H        0.49894172       3.19214690       8.90609849       2.41197620       0.52689856      -1.47466160
O       12.17801672       5.42811690      11.36896849      -0.27141630       2.83962191       1.69955984
H       12.97931672       4.89379690      11.60726849       2.11378282      -1.10837394       1.22339117
H       11.88061672       4.94916690      10.59466849      -1.65897565      -1.64212531      -2.93446851
O       12.82311672      13.72333690       0.51076749      -1.44503761      -0.84447170      -0.38126528
H       13.19501672      14.60073690       0.21886905       0.82915200       1.73751516      -0.94977471
H       13.33621672      13.56723690       1.34157849       0.79036832      -0.70514691       1.61674639
O       12.13541672       6.64145690       8.35692849      -0.35270340       0.35371130      -3.43786494
H       13.06231672       6.28500690       8.52619849       1.61659571      -0.49394386       0.70746337
H       11.66111672       6.73958690       9.19679849      -1.24143018       0.11657249       2.66914262
O        5.78976672       0.99842590       9.56495849      -0.20680816      -0.60831755      -1.45590502
H        6.11375672       1.30656690      10.48116849       0.56453709       0.39489385       1.16707043