288
Lattice="13.537194653885212 0.0 0.0 0.0 15.28766425242825 0.0 0.0 0.0 14.490482675950606" Properties=species:S:1:pos:R:3:forces:R:3 energy_shift=-39183.57446970624 energy=-3347.125732041757 pbc="T T T"
O        3.81185570      10.99891189       3.43732011       1.37413632       3.13133578      -0.04351009
H        3.49014570      10.19991189       3.87252011      -1.13104424      -2.75075973       1.40146633
H        3.72679570      10.88301189       2.43523011      -0.24308622      -0.38947719      -1.29296399
O        5.09671570      10.84301189       9.58555011      -3.36131719      -0.10304178      -0.44189286
H        5.90621570      10.46751189       9.12251011       1.09912155      -0.23609973       0.35165538
H        5.35484570      11.34581189      10.41466011       1.10308014       0.71765149       0.76729550
O        9.78260570       6.05590189      12.56786011      -0.10395388       1.41466561       2.19511019
H        9.51380570       5.11583189      12.79836011      -0.14919032      -1.04204612      -0.40924054
H       10.07884570       6.21649189      11.62576011       0.19445159      -0.93829582      -2.02145428
O        8.10074570       1.43248189       2.11389011       1.26282809       2.04909397       0.90251556
H        7.70315570       0.62198589       1.70134011      -0.52827847      -1.59667132      -1.00839223
H        9.10884570       1.46802189       1.75031011      -1.01475292      -0.09226217       0.08413498
O       10.25474570      10.28991189       4.37217011       0.48869186      -1.01033220      -1.46449873
H        9.25161570      10.17751189       4.06674011      -0.31733221      -0.35223889       0.30454124
H       10.30454570      10.65401189       5.30412011      -0.22249832       0.45551080       1.74321752
O        0.59949670       7.26272189       3.01212011      -0.05455033       0.88786763       1.77116178
H        0.54705970       7.42241189       2.00988011      -0.10103784      -0.12187336      -0.98935453
H        0.58398870       6.25069189       3.18865011       0.08201460      -0.69878415      -0.16022923
O        0.55520270       3.61617189       0.31416511      -1.86221768      -1.62853065       0.70278411
H        0.56700670       4.13302189      13.93626011       0.38030775       0.37156215      -1.43242697
H        1.41344570       3.82631189       0.81625511       0.95207187       0.49059999       0.39056848
O       10.28464570       3.21772189       9.70398011       1.71675640       1.71345873       0.01754557
H       10.18434570       3.05514189      10.69426011      -0.00099651      -0.20255503       0.81362021
H        9.74521570       2.48820189       9.23701011      -0.34303648      -0.88757011      -0.66314838
O        0.04212260       0.88359189      10.10986011       1.01173378      -1.81084200       2.11575891
H       13.39424570       0.36426289       9.20736011      -0.41841521       0.15736920       0.11566611
H       13.51344570       1.84822189       9.89771011      -0.40463476       1.92720219      -0.60351384
O       12.84134570       8.27555189       5.37898011      -0.33695720      -0.07505581       0.98428887
H       13.14784570       9.25999189       5.54126011       0.37631279       0.53750077      -0.39558961
H       13.14584570       7.97202189       4.46170011       0.61668250      -0.27177966      -1.51104540
O        6.55878570      14.75731189       1.01848711       1.92873877       0.50578014       1.47675934
H        5.71782570      15.27518854       1.27378011      -1.20717115       0.34230605      -0.00309869
H        6.33989570      14.13451189       0.29678111      -0.83571896      -1.52837843      -1.87150739
O        6.14477570       7.95129189       1.59620011       1.36509230       0.26616698      -0.31182412
H        6.42750570       8.11454189       0.60886211      -0.20141754      -0.02346418      -0.11955735
H        5.12563570       8.15735189       1.64955011      -0.46418770      -0.09000391      -0.26303428
O        0.02355105      13.36891189      11.97796011      -2.28285368      -1.84823069      -1.70032420
H        0.35311770      14.08811189      12.53996011       1.31027704       2.01824753       1.73270176
H        0.79424970      12.77921189      11.70266011       0.93436204      -0.29437386      -0.13158326
O        2.18006570      13.38911189       9.69228011      -0.74198145      -1.38414392      -0.23906261
H        2.07700570      14.31221189      10.08126011      -0.23070666       1.23944685       0.26469642
H        3.12817570      13.14871189       9.94984011       0.96839015      -0.19358882       0.15147897
O       10.27924570       8.67893189      13.31496011       0.10211174       3.03960442      -1.56858879
H       10.48754570       8.62035189      14.28326011       0.36960051      -0.65508164       1.36060801
H       10.09024570       7.77962189      12.94126011      -0.19759754      -2.33269036       0.18855866
O        6.31674570       5.52054189      12.86596011       0.70020444       0.31293137      -1.20407965
H        5.55491570       6.14650189      13.07766011      -0.99621964       0.66311671       0.25947186
H        6.31558570       4.84249189      13.63846011       0.19558528      -0.51052945       1.04296096
O        6.34547570      11.58341189       4.74125011       0.04915167       1.14617594       1.66178037
H        6.90818570      11.26931189       3.98934011       0.96467050      -0.85597657      -1.87731001
H        5.40621570      11.28201189       4.49725011      -1.27975689      -0.16139576      -0.66869869
O       12.38604570      11.56791189       0.57542511       0.51252378      -0.14787740      -0.38031460
H       11.86944570      11.68641189       1.45697011      -0.48494023      -0.10779755       1.26383886
H       11.67564570      11.81661189      14.34236011      -0.23920955      -0.19967245      -0.06771645
O       11.73414570       5.01410189       5.50720011       1.35027458      -0.60891778       0.54149044
H       11.01174570       4.79938189       4.81808011      -1.06858432       0.36074006      -0.72489108
H       11.57544570       5.92230189       5.93040011      -0.79823976       0.76551483       0.24634508
O        7.35688570       2.60781189      10.74146011      -0.18134059      -3.51044325       2.96099937
H        7.74902570       2.29248189       9.89815011       0.84710839      -1.06494159      -2.51403276
H        7.14883570       3.51967189      10.55956011      -0.87978132       4.48830097      -0.94815388
O       11.62724570       4.15015189       1.43879011      -0.81908740       1.51332678       0.68197012
H       12.54194570       4.01889189       0.99126311       1.35236336      -0.77706885      -0.55239296
H       10.94504570       3.47992189       1.12029011      -0.11466996      -1.16481048      -0.88387319
O        7.86452570       9.16963189       3.72668011       0.06511700       2.43747336       0.24338330
H        7.89275570       8.36699189       4.36171011      -0.18719946      -0.83452431       0.08287367
H        7.79277570       8.81588189       2.79235011      -0.24818188      -0.56269409      -1.05369481
O        0.31492870       9.69703189      11.51246011       0.07280698      -0.77358936       0.47975416
H       12.86394570       9.98116189      11.35216011      -0.42501701       0.22921236      -0.56955208
H        1.00909870      10.02581189      10.79786011      -0.18371122       0.07653237      -0.02895535
O       11.18484570       0.10961069      11.80616011      -1.39322602       0.79701685       0.64260640
H       10.94134570       1.14267189      11.69096011       0.35071682      -0.84259206      -0.08644726
H       12.12964570       0.01504764      11.46826011       1.25421206       0.14195446      -0.76738705
O       11.88564570      12.17871189       9.18845011       0.42320367       0.14803637      -0.36938129
H       12.11414570      11.67371189      10.04716011       0.15908566      -0.23080233       0.54182389
H       12.35014570      13.10381189       9.26028011       0.02507131       0.21499678      -0.04762861
O        9.93170570       6.03956189       9.72482011       1.52215731       2.65794048       0.29366651
H        8.93622570       6.02737189       9.63617011      -1.88197025      -0.41059689       0.12536072
H       10.19754570       5.08748189       9.63188011       0.38232608      -2.26600777      -0.42382268
O        3.51527570       8.18664189       1.83718011       1.26894144       0.97905177       0.46779630
H        2.68733570       8.04122189       1.31444011      -1.47000898      -0.74297396      -0.91572560
H        3.50537570       7.44498189       2.56094011      -0.17807199      -0.33882968       0.71823277
O        5.45002570       6.64247189       8.43785011       2.30833425      -0.82898989       0.87237564
H        5.56735570       6.97368189       7.50836011      -0.00421227       0.51489880      -1.43446610
H        4.48502570       6.79628189       8.73816011      -0.78649470       0.77633039      -0.07548808
O        0.81534870       4.39537189      12.19466011       2.42507640      -1.75123010       2.05738687
H        0.41068570       5.28193189      12.21286011      -1.35712955       2.95488973      -0.16445053
H        0.43025870       3.93816189      11.39616011      -0.69540772      -0.82373796      -1.59275581
O        9.58320570       2.38269189      12.25746011       2.00840498       1.17674126       0.09208558
H        8.69162570       2.44113189      11.77196011      -1.79361399      -0.12442196      -0.44922383
H        9.51856570       1.82514189      13.07446011      -0.45266828      -0.90839907       1.48281306
O        7.49919570       7.24858189       5.42116011       1.27033207      -2.63823914      -1.50380410
H        7.21061570       7.91513189       6.05519011      -1.30282501       2.44862381       2.35514947
H        7.14414570       6.29164189       5.76425011       0.12829698       0.12957937       0.30556967
O        3.31032570      14.58131189       5.95139011       0.51161388      -0.16277254       0.30251129
H        3.23219570      14.43521189       4.92951011      -0.12171114      -0.16312138      -0.33930013
H        2.68093570       0.09378439       6.18520011      -0.26929411       0.15287596      -0.06446440
O        6.36018570       2.15397189       5.78534011       2.53405478       1.93276526       3.56985330
H        5.87076570       1.56519189       6.43810011      -0.75824780      -0.97354317       0.86253130
H        6.09077570       2.03721189       4.87893011      -1.91847179      -0.77898100      -4.10852064
O        5.22907570       0.17731389       7.56470011       0.46268440       0.50910376       0.32203052
H        4.57615570       0.49916089       8.30919011      -0.00776830      -0.22385980      -0.31685755
H        4.67876570      15.02881189       6.77039011      -0.60840762      -0.07079827       0.21495255
O        8.69853570      14.01681189      11.82556011      -2.30060442      -1.71682871       1.14033401
H        9.05440570      13.43541189      11.03826011       0.55494259      -0.27907031      -0.81822341
H        9.29648570      14.77161189      11.90006011       2.04794571       2.43075724      -0.00779958
O        6.44021570      12.68351189      11.63166011      -2.75291223      -2.20787004      -2.34981247
H        7.14333570      13.34931189      11.53816011       2.46243242       2.12997222       0.01694770
H        6.31367570      12.59491189      12.60236011      -0.15109748      -0.20720137       2.31386020
O       10.98944570      12.12901189       2.76252011       1.76917807       0.78484312      -0.73060315
H       10.20724570      12.72681189       2.56006011      -1.34467074       0.30631623      -0.19840128
H       10.73894570      11.46061189       3.53764011      -0.49998541      -0.59038504       0.42430808
O       13.42014570      10.98611189       5.67504011       0.92147820      -0.35819838      -0.84783058
H        0.25238970      11.61721189       6.41342011       0.58664617       0.28652743       0.35287903
H       12.45124570      10.92291189       5.91159011      -1.71393457       0.36909890       0.20339864
O        4.40426570       1.08701189       1.23644011       0.56489571      -0.72048504       1.52780611
H        3.43955570       1.00222089       1.62440011      -0.51779268      -0.19105540      -0.13829376
H        4.43643570       1.53757189       0.35792611      -0.25676695       0.99020625      -1.97074817
O       13.14954570       6.76731189      12.43856011       0.90069163      -1.23036282      -1.59486455
H       12.57674570       6.82182189      13.26206011      -1.39248153       0.78072668       1.14685054
H       13.41274570       7.65097189      12.01916011      -0.08942704       1.17646746      -0.13045532
O        7.71609570      14.56921189       8.08994011       1.23832125      -0.96645275       0.01624466
H        6.74495570      14.76131189       7.86720011      -1.62897370       0.43714140      -0.29826727
H        7.64570570      13.79781189       8.77062011       0.52777339      -0.16895731       0.16482476
O        8.67704570      10.36241189       0.63560011      -0.51395450       0.52560593       2.19114383
H        9.33177570      10.64361189      14.44276011       1.17313812       0.47985008      -1.76747081
H        8.03974570       9.70637189       0.21358111      -0.59697536      -0.86155794      -0.75656021
O        7.95086570      12.49511189       2.25308011       0.57712372      -0.39968400       1.86198793
H        8.17172570      11.78971189       1.54828011       0.13747041      -0.31763448      -0.74844602
H        7.45200570      13.27461189       1.84701011      -0.55322178       0.98816945      -0.55838443
O       12.02364570       6.97576189       0.42623211       0.64987145      -0.60307831      -0.56452666
H       11.60824570       6.08815189       0.73378711      -0.26783769      -0.60030220       0.23864453
H       11.64554570       7.65866189       1.08774011      -0.43434814       0.56707718       0.56631653
O        1.40077570       8.14119189       6.99840011       1.34349122       2.41416277       0.09411417
H        0.54300870       7.94506189       6.49211011      -1.01636685      -0.44710653      -0.67295377
H        1.59752570       7.33089189       7.52148011       0.31868628      -1.95827969       0.97565326
O        5.12427570       2.11099189      12.52656011       0.08913210      -1.95069677       1.56923763
H        5.92865570       2.19031189      11.92116011       1.01749103       0.28093303      -0.76890663
H        4.50809570       2.86753189      12.25916011      -0.96176646       1.21687115      -0.34892355
O        7.59760570      10.45751189       8.84411011       0.34300582       1.10672589       2.32888214
H        8.54862570      10.16241189       8.72638011       1.23974270      -0.91307478      -0.07641763
H        7.12773570      10.13461189       8.00574011      -0.51382280      -0.47982308      -1.98043759
O        6.04265570      11.98761189       0.00207743      -0.16214445       0.16070700      -1.15262478
H        6.22134570      11.71981189       0.96449611       0.19240229      -0.17389887       0.85534281
H        5.09156570      11.60201189      14.34466011      -0.51637839      -0.26218009       0.19491730
O        0.60198770       4.60609189       4.04107011       0.28939356       0.73402592      -0.33461018
H        0.98962070       3.65199189       4.14143011       0.13601728      -0.59293036       0.25754673
H       13.13984570       4.40674189       4.03165011      -0.73596648       0.16848805      -0.02240886
O        6.60260570       4.93539189       6.37069011       0.00162223       0.38259813       0.27286943
H        6.37625570       4.04020189       5.92189011      -0.15019717      -0.91691500      -0.39499496
H        6.51005570       4.70801189       7.37283011       0.03535047       0.17815144       0.21231911
O        9.16704570      12.46801189       9.81025011       0.76147149       1.22305152      -0.09569570
H       10.03023570      12.04701189       9.40819011      -0.07631842       0.14942927       0.03586893
H        8.40029570      11.81741189       9.77514011      -0.95276301      -1.18367011      -0.32448818
O        0.96404370      10.61771189      13.94226011       2.26412259      -0.49117111       0.90734181
H        0.11551040      10.99131189      14.35296011      -1.11946747       0.78429429       1.21584718
H        0.60862070      10.14481189      13.13196011      -0.15666984      -0.58228091      -1.92852999
O       10.11984570       8.80019189       9.14765011      -0.00155184       3.27861528       1.03564583
H        9.98525570       7.93354189       9.58762011      -0.11286460      -2.40564271       0.64231209
H       10.21424570       8.63338189       8.17808011       0.33269618      -0.81682305      -2.28680276
O        3.46893570      10.66991189       0.60964911       1.37741908       2.32252267       0.11804216
H        2.63912570      10.79841189       0.03508640      -1.30897161      -0.00084444      -0.57465965
H        3.51839570       9.70825189       0.84125411       0.16967450      -1.79063183       0.20109342
O        0.98351170       0.50310889      14.15116011       1.68803088       0.04328414      -0.41038976
H        0.88373170       1.52571189      14.02996011      -0.45833353       0.35520494       0.00896364
H        0.07090570       0.07808589      14.37936011      -1.07838281      -0.03575127      -0.08537520
O       10.61584570       1.23660189       1.34519011      -0.95624876       2.04153953      -0.40980885
H       11.29814570       0.91349089       0.70502011       1.34373278      -0.96216115      -1.44492938
H       10.82854570       0.72668489       2.17472011       0.35433928      -1.13419268       1.76571392
O        4.55492570       9.18467189      12.35886011       0.73668662      -0.93038076       1.69889328
H        5.47402570       9.59660189      12.53176011       0.51568297       0.00947793       0.09910846
H        4.19536570       9.68334189      11.60706011      -0.93923759       1.41822930      -2.38189869
O        6.69281570       4.46103189       0.71821411      -0.47762791      -1.05166811      -0.98116840
H        6.97388570       5.06804189       1.48833011       0.36835133       0.03058049       1.07664455
H        6.94598570       3.48189189       0.94161011       0.10886052       0.06675745       0.52245885
O        7.70608570       6.08591189       2.79092011       1.16428847      -1.47203459      -0.76620690
H        7.25864570       6.84501189       2.24647011      -0.58617447       0.73725718       0.32387280
H        7.64873570       6.25654189       3.78682011      -0.54791028       0.61076447       0.53311235
O        1.85111570       2.22687189       4.23785011       0.06163573       1.17770637      -0.43661878
H        1.80529570       1.69665189       3.35640011       0.00310305      -0.49431758      -1.10211953
H        1.81757570       1.50643189       4.92824011      -0.17963975      -0.84993319       1.47255162
O        3.38614570       7.09310189       4.19334011       2.81524443      -0.68583864      -0.78527461
H        3.50132570       6.13141189       4.52803011      -0.48922244      -0.95136198       0.58710691
H        2.48362570       7.45480189       4.31976011      -2.73833169       0.09407867       0.31001271
O        3.73847570       3.73279189       8.31488011       0.15087251       0.21217907      -0.70339348
H        3.30585570       3.23642189       9.09163011      -0.19024778      -0.52801928       0.64594697
H        4.09177570       4.60849189       8.71912011       0.22531772       0.08429177       0.04098081
O        2.37612570      13.40881189       3.68920011      -2.69168037       2.80445255       1.39556159
H        1.72893570      12.77521189       4.18609011       0.13391242      -0.43339272      -0.18838357
H        3.00176570      12.89181189       3.17578011       2.05734010      -2.51734643      -1.54637103
O        1.13287570       7.72266189       0.35258411       2.46940848       1.55290548       1.54846335
H        1.06683570       8.74602189       0.14394911       0.00473378       0.84067980       0.03058224
H        0.45719670       7.40366189      14.22706011      -2.15157873      -1.59455693      -1.91314497
O        3.49692570       4.20471189       5.28078011      -1.37537909       0.83063332      -1.81551623
H        4.04076570       3.92285189       6.05192011       1.09348973      -0.65833042       1.70559822
H        2.94632570       3.34123189       4.97979011       0.61037054       0.46743343       0.16699455
O        1.62061570       1.29371189       6.85750011       1.31344663      -0.80039019       1.17235361
H        2.14197570       1.30670189       7.81952011      -0.74607222       0.18483644      -0.87116080
H        0.82043070       1.95953189       6.89083011      -0.71950041       0.82410344       0.17872486
O        3.60391570       4.36507189      12.20096011       1.97234911      -0.70390861      -0.38345296
H        3.84422570       5.11835189      12.84656011       0.19101605       0.60788902       0.42459583
H        2.66088570       4.59535189      12.00846011      -2.51818922       0.01882783      -0.28841174
O        9.97872570       4.45124189       3.50736011      -0.15229345      -0.76303636       0.39810658
H       10.52484570       4.22004189       2.64908011       0.56745751       0.10891171       0.37882264
H        9.28842570       5.09981189       3.12668011      -0.85408386       0.74266535      -0.22992937
O        2.28633570       9.83898189       9.65871011      -2.10992063      -1.07543896       0.40160002
H        1.65055570       9.96409189       8.84062011       0.47293998      -0.11485652      -0.26526039
H        3.16816570      10.24131189       9.44975011       2.12183985       1.10967429      -0.71297695
O        1.89062570       0.51403389       2.19299011       0.92548739       0.82567881       2.19621554
H        1.80381570      14.86951189       2.61758011       0.00970716      -0.78715090       0.08846700
H        1.56815570       0.52635689       1.24110011      -1.10265485      -0.35809921      -2.29868061
O        6.39992570       9.77530189       6.68499011       0.77231153      -1.61186460       1.28789546
H        5.38180570       9.75407189       6.78357011      -0.87742446      -0.26802996      -0.47114544
H        6.60039570      10.49401189       5.99332011      -0.00304911       0.97086354      -1.03871308
O       12.16004570      14.54161189      14.47804358       0.10308239       0.52762098       0.79253952
H       12.15764570      13.62441189       0.48679311       0.18075333      -0.04658920      -0.08330451
H       11.48544570      14.41031189      13.69466011       0.14496095      -0.06695029      -0.19422900
O       10.51694570       7.67311189       6.37396011      -3.54283516      -1.38452488       2.64431819
H        9.82886570       7.77286189       5.63342011      -0.24514725       0.11915457      -0.50515994
H       11.39444570       7.92399189       6.06140011       2.95079247       1.32669330      -1.70917772
O        0.71311070       5.11817189       7.04508011      -0.55632643       0.94498664       3.62671283
H        1.57821570       4.86421189       6.67387011       2.47485913      -0.79540842      -1.11338352
H        0.10654880       5.13336189       6.27781011      -1.28656273       0.08581134      -2.02143949
O        8.50276570      13.16691189       5.47603011       0.31620363      -0.19587352      -0.71350329
H        8.35425570      13.67591189       6.38685011      -0.87780190      -0.36914670      -0.33241881
H        7.64363570      12.57761189       5.10949011       0.91471602       1.55773852       1.38073026
O        8.72353570       1.73417189       8.26310011      -0.46846562      -0.10826239       0.49312537
H        8.37046570       0.79361989       8.00307011       0.02466601      -0.77603903       0.60407869
H        8.81844570       2.15460189       7.34610011       0.26192718       1.00520894      -0.51312378
O        7.49564570       8.03600189      13.48056011      -1.27245841       2.73147427       1.70282813
H        7.43402570       7.06584189      13.33406011       0.18827043      -2.58357649      -0.91987075
H        8.08734570       8.50182189      12.81996011       0.81492892       0.00805169      -0.85852965
O       10.92324570      12.54501189      13.17716011      -0.58233767      -0.12619497       1.86240626
H       11.60524570      12.45821189      12.47006011       1.46919044      -0.10312264      -1.73976144
H       10.06094570      12.74991189      12.73016011      -1.87975812       0.40514845      -1.03204679
O       10.61814570      14.82051189       3.69998011       2.65216965       1.53247614      -1.23614366
H        9.71366570      14.54041189       3.92909011      -2.75434433      -1.43345305       0.57572355
H       11.24484570      13.99851189       3.68350011      -0.23799564      -0.60254637       0.01731839
O       12.80664570      14.92441189       8.04852011      -1.44029303      -1.32467633       0.87845130
H        0.10555105      15.00011189       7.52890011       1.79705773      -0.07363195      -1.54222036
H       12.14064570       0.24924764       7.56461011      -0.78940772       0.28188862      -0.65673417
O       11.00224570       0.67791289       6.04064011       2.28424659       0.40370025       3.07902982
H       10.34464570       1.41616189       6.25541011      -0.80746947       0.54172012      -0.20314849
H       10.69234570       0.17824889       5.25858011      -0.72176162      -1.06193645      -2.12189129
O        1.38445570      12.75901189       7.08125011      -2.78433455      -1.49210144       0.87076267
H        1.66685570      12.90601189       8.05130011       0.32898020       0.28183221       0.90266276
H        2.08852570      13.15681189       6.54899011       2.47408456       1.38858044      -1.58805932
O       11.01184570      10.34761189      11.27326011       0.95847765       1.10673491       0.00659237
H       10.60114570       9.98466189      10.40976011      -0.22447228      -0.62928366      -0.84942674
H       10.75334570       9.65606189      11.99016011      -0.13468529      -0.38674727       0.84490999
O        5.79400570       2.42538189       3.21801011      -1.36231403       1.80763028       1.83028565
H        5.19194570       2.04870189       2.50063011      -0.55647716      -0.54553208      -0.90485108
H        6.70489570       2.08908189       3.02706011       2.10705399      -0.71891464      -0.95051282
O       13.41514570       3.58897189       9.88639011       0.84364226      -0.31154463       0.01407763
H       12.44684570       3.82583189       9.96994011      -1.89544289       0.03219283      -0.14854902
H        0.18940270       4.21523189       9.15180011       0.48753261       0.57120389      -1.16803787
O        2.54192570       4.51982189       1.78477011      -0.36832690       0.10728259       0.03715390
H        3.51755570       4.75113189       1.80888011       1.41610411       0.14642285      -0.13139714
H        2.32034570       4.30433189       2.76166011      -0.13940319       0.10999315       0.39199949
O       10.24534570       8.44292189       1.92321011       0.80988776      -1.54759766       0.87225284
H       10.57154570       8.57550189       2.90706011      -0.07735754       0.15093431      -0.14327300
H        9.84544570       9.33246189       1.67345011      -0.65499283       1.35009478      -0.16172891
O        2.79462570       1.07570189       9.64498011       1.27958840       0.89630455      -1.95751802
H        3.56692570       0.68692689      10.21756011       0.22414274      -0.24102698       0.28639326
H        1.94038570       1.16162189      10.14766011      -1.98238460      -0.04537803       1.19865755
O        3.12498570       6.83152189       9.21653011      -1.75343124      -0.20269797       0.43871911
H        3.16920570       6.17068189      10.00498011      -0.19214606      -0.26534975       0.51025104
H        2.64184570       7.65655189       9.61148011      -0.03722026       0.61008754       0.11976920
O       10.58524570      11.55351189       6.83028011       0.19232416      -1.80961572      -0.16848175
H       10.06904570      12.36821189       6.57407011      -1.13036243       1.39578304      -0.67370237
H       11.21044570      11.84811189       7.57253011       0.71870705       0.19449683       0.80986389
O        9.22021570       2.67110189       5.75037011      -0.13314020      -0.56727300       1.62746709
H        8.21502570       2.62087189       5.63736011      -1.57491334      -0.51242433       0.12897413
H        9.42586570       3.14452189       4.91775011       1.17490776       1.48438061      -2.35220412
O        7.17829570       5.42283189      10.28236011       0.24188051      -0.15896548      -0.66893278
H        6.50395570       5.94612189       9.66973011      -0.08628658       0.00898243       0.01022995
H        6.79518570       5.44982189      11.25786011      -0.13626442       0.31065866       0.21989626
O        3.91912570       9.09456189       5.80543011       0.88776606       2.16063170       0.69485012
H        3.02168570       8.94001189       6.23449011      -1.50711404      -0.14485504       0.89129923
H        3.93643570       8.30398189       5.18184011       0.63355705      -1.30683592      -0.85807952
O        3.55674570       7.01836189      13.47166011       0.32382097      -2.27499804       0.49373129
H        2.67879570       7.25575189      13.93856011      -0.60787278       0.03559969       0.23487291
H        3.83528570       7.82754189      12.95036011       0.38645592       1.27580146      -0.66930427
O        4.72120570      15.04321189      10.85966011      -0.54680167       0.71877618       0.53256937