288
Lattice="13.627364896308864 0.0 0.0 0.0 15.389494242096411 0.0 0.0 0.0 14.587002698683342" Properties=species:S:1:pos:R:3:forces:R:3 pbc="T T T"
O        6.36310083       6.72644688      12.57372012      -1.64969234      -0.69398021      -0.47471861
H        7.14106083       6.06253688      12.55532012       0.64772512      -0.23632362      -0.05730211
H        6.72125083       7.64137688      12.83242012       0.66931696       0.71467438      -0.09770667
O       13.31133083       8.33920688       8.67409012      -0.22676770      -3.99488556       0.80205577
H       13.41533083       9.27336688       8.44115012       0.56768812       3.07259142      -0.96763396
H        0.59230583       7.89934688       8.42633012      -0.40583814       0.07923406       0.04109599
O        6.80219083       2.06315688      12.14492012       1.41112069      -0.70242118      -3.91089416
H        6.84031083       1.76395688      13.06332012      -0.09731893      -0.50406613       3.48792756
H        6.05873083       2.70750688      11.98832012      -1.93883674       0.90662431       0.23670594
O        7.91345083       5.42698688       3.83163012       1.17348011       0.27673821       1.00919132
H        7.51532083       4.85109688       3.10544012      -0.65512999      -0.47606487      -1.36917980
H        7.42703083       6.29847688       3.64503012      -0.53358192       0.74114493      -0.20003468
O        0.64416483      12.27672688       2.69695012      -1.49097348       0.09660584       0.89344153
H        1.50829083      12.76082688       2.50473012       0.82534551       0.01533412      -0.51694120
H        0.72149783      11.27202688       2.36619012       1.11869052       0.25561430      -0.54557082
O       13.31383083      12.27592688       5.36139012      -0.48775310       0.13482577       1.20515197
H        0.55060083      12.18922688       4.84685012       1.09199429      -0.11632419      -0.49250660
H       12.63423083      12.47282688       4.59591012      -0.46711372      -0.07047853       0.04571357
O        8.81560083       6.83774688      14.37632012       0.02826546       0.43714224      -0.30878028
H        8.56984083       5.96133688       0.23731742      -0.27752753      -0.62552775       0.42536793
H        9.56438083       7.22492688       0.38980212       0.68281431       0.21425402       0.41918645
O        2.37345083       6.61194688       8.95881012      -0.87855697       1.30069228      -0.95916408
H        3.22211083       6.36700688       9.43402012       1.45177322      -0.91209024       0.63652110
H        1.89571083       5.75297688       8.64496012      -0.19790018      -0.91663643       0.30909952
O       10.59853083       3.17859688       4.21039012      -1.71310595      -1.86106054      -0.22969034
H       11.13703083       3.14895688       3.36269012       1.46156777       0.30790335      -0.66638394
H       11.02553083       3.81434688       4.85679012       0.65675867       1.06406437       0.78076421
O        2.78432083      14.31532688       8.30968012      -0.70729869       1.73978054      -0.68289768
H        2.11949083      13.49592688       8.28265012       0.22755964      -0.58920591       0.43508850
H        3.60479083      14.06492688       8.87357012       0.05503725      -0.73444844       0.83662010
O       10.54353083       8.34815688       1.44140012      -1.04168419      -1.69948963      -1.76382063
H       11.41263083       8.80555688       1.59796012       1.37823851       1.21043411       0.23718068
H        9.98938083       8.54192688       2.29439012      -0.10713060       0.23132288       0.62514205
O        7.45567083       1.30374688       7.38305012       2.31224627       0.99970493      -0.72063617
H        6.51432083       1.03204788       7.43140012      -2.82118628      -1.00603383       0.20995348
H        7.39824083       1.84742688       6.50232012       0.56534020       0.25708569      -0.52323393
O        4.11061083       3.42689688      12.37462012       1.10315142       0.04776837       0.07485174
H        3.43161083       2.81326688      11.90332012      -0.77138238      -0.25295510      -0.38480929
H        4.12895083       4.29753688      11.81342012      -0.14141786       0.37354580      -0.60434326
O        9.18110083      11.88662688       6.46474012       1.25051584      -0.04943956      -0.07043932
H        9.24235083      12.85902688       6.04829012      -0.34767764      -0.35227616       0.02453063
H        8.18965083      11.60092688       6.50041012      -0.50025818       0.23464964      -0.30532200
O        9.92757083       8.93107688      10.62732012       0.33099794       0.68806008       0.33097716
H        9.23419083       8.92818688      11.42192012      -0.39912007      -0.42518839      -0.38371680
H        9.50216083       8.50623688       9.78417012      -0.29508826       0.18479440      -0.00378077
O        0.14896593      10.48392688      11.47942012       1.69263683       1.37117299       0.09617105
H       13.10363083      11.08502688      11.03952012      -0.77491715       0.73200749      -0.51882151
H       13.30873083       9.62772688      11.62522012      -1.36647430      -2.19554398       0.04478060
O       10.33303083      14.67062688       1.92711012      -1.64789257      -0.63932799       1.86076709
H       10.98033083       0.07013264       1.85191012       1.04010292       0.98327433       0.18527372
H       10.28003083      14.36192688       0.99253312      -0.17268287      -0.75684873      -2.09606990
O        1.97181083       0.69404788       0.73952612      -1.58691328      -0.04584440       0.89139093
H        2.21603083       0.26785788      14.40579082       0.26427951      -0.07425000      -0.97629916
H        2.81347083       0.62780888       1.27983012       1.35988020       0.27452522       1.01331535
O        0.44999883       1.67582688       6.10439012      -0.09368723       0.27109454       0.67097757
H        0.77922283       2.66669688       5.94086012      -0.47021297       0.06233337       0.16916735
H        0.60933283       1.30603688       5.14135012       0.56866237      -0.31578996      -0.45445386
O        0.89667483       4.46144688      12.83522012       0.08459992       0.36335433      -0.90200453
H        0.96264683       4.00334688      13.75952012       0.10550745      -0.22677487       1.11803241
H        0.26485583       5.23981688      13.06022012      -0.36608809       0.48383277      -0.03157668
O        4.67169083       5.70543688      10.49572012      -1.49361737       0.30428721      -0.17826547
H        5.23407083       6.07542688      11.25572012       0.78857946       0.98127475       0.91833070
H        5.28047083       5.00764688      10.09462012       0.67394763      -1.20609388      -0.79307258
O        4.31845083      10.91932688       5.55572012      -0.48534637      -1.36704021       2.20327981
H        4.15144083      11.89482688       5.84068012      -0.36880365       0.79557251      -0.96304604
H        4.78648083      10.81412688       4.65523012       0.34603589       0.73274104      -0.75527184
O       11.60863083      12.50932688       3.23674012      -1.29237528      -1.69771470       1.18812815
H       11.12733083      13.35962688       2.97626012      -0.34312770       1.44100504      -0.54929072
H       12.52213083      12.47972688       2.80734012       1.57404816       0.79213262      -1.12807570
O       13.40233083      13.99482688      13.68432012      -2.59148854      -0.93179099       0.95938587
H       13.21873083      15.01122688      13.66882012       0.00239052       0.46000068      -0.11634128
H        0.71731983      13.92352688      13.45232012       2.58384983      -0.17287977      -0.93062515
O        9.05629083       8.97185688       3.52185012       1.20264095       2.26176386      -0.64563802
H        8.19906083       8.59032688       3.17269012      -2.03693758      -1.12425406      -0.33483891
H        9.32131083       8.46817688       4.32342012       0.47436353      -1.05827893       1.99751203
O        6.03239083       3.43816688       9.13830012       0.29232761       0.33706758       3.79602682
H        6.22589083       4.11945688       8.45379012       0.61415061       1.30902153      -1.90065094
H        5.74354083       2.61127688       8.69531012      -0.94813841      -1.80299223      -1.21700341
O        4.03159083       9.02574688       1.76948012      -0.58401826       1.21418922       1.57064430
H        4.18527083       8.00242688       1.68242012       0.06150658      -0.03111794      -1.14306794
H        4.35222083       9.57713688       0.92850612       0.42591219      -0.94120556       0.13854569
O        2.97457083      13.39002688       5.78065012      -0.03081470      -1.71008330      -1.84319611
H        3.10782083      13.75302688       6.70791012      -0.04803788       1.29983276       1.40234374
H        2.78433083      14.14812688       5.13366012      -0.00855374       0.69774027      -0.16093299
O        9.67018083      14.51582688       5.81531012      -2.40586773      -1.70027296       0.43922276
H        9.53542083       0.02313264       5.41775012      -0.20237524       1.51438650      -0.64889696
H       10.64433083      14.44662688       6.02685012       1.79951954       0.53479887       0.05835186
O        6.66948083       8.04267688       6.30141012       2.02319454      -0.83724619       1.15472344
H        5.89928083       7.68492688       5.76085012      -1.34985787       0.49157383      -1.00705228
H        6.79835083       9.06330688       6.29541012      -0.58895451       0.42685093      -0.10978927
O       11.23573083       5.04020688       6.06838012       1.20420746       0.07631834      -0.79432586
H       10.47383083       5.39985688       6.59971012      -1.38755216       0.54137351       0.79808975
H       11.54513083       5.85676688       5.49804012      -0.03305551       0.44786034       0.02003534
O       11.83643083       7.77755688       5.06704012      -0.00845536      -1.48744425      -0.29723054
H       11.25383083       8.35587688       5.69719012      -0.16161244       0.70322739       0.51685655
H       12.08263083       8.32708688       4.23457012      -0.20775062       0.88289275      -0.39718683
O       12.83363083       6.45676688       1.93912012       0.37319633      -0.29593626       0.79347785
H       13.20743083       6.58744688       0.98902312      -0.29761730       0.52526740      -0.89677942
H       12.01483083       7.07918688       2.03657012      -0.45057734       0.17450725      -0.41132138
O       11.38153083      13.71842688      11.48322012      -0.44100176       0.38413168       0.21798651
H       12.09313083      13.52422688      12.22292012       0.47564128      -0.02548889      -0.21715138
H       11.59973083      13.30052688      10.53912012       0.29558759       0.14561702       0.03798819
O       12.49513083       0.72434488       1.80609012      -0.35420027       1.42931910       0.80555716
H       12.59043083       0.98804988       0.81412312       0.10579324      -0.08550088      -0.43985395
H       13.03453083      15.27152688       1.85497012       0.72909036      -1.38866383      -0.03682856
O        8.78604083      14.54972688      12.95692012      -2.48260233       0.36551035       2.31111950
H        9.49123083      14.48292688      12.28902012       2.30386520      -0.49732957      -1.89175653
H        8.57166083      13.60382688      13.32452012       0.18805167      -0.37235691      -0.31964730
O        5.61271083      11.34272688       3.34079012      -0.16810743       1.47467092       2.95702098
H        6.08479083      12.27302688       3.43497012      -0.17397320      -0.35363980       0.10162949
H        5.81254083      11.04702688       2.45559012       0.68318870      -1.05968548      -3.62844458
O        5.03640083      10.06827688      14.04522012       0.21809577       0.96026417       0.94332668
H        5.96907083       9.99118688      13.64342012       0.75192089      -0.44895353      -0.30801908
H        4.38090083       9.58193688      13.43972012      -0.28845484      -0.65442608      -1.23658281
O        5.22664083      14.88312688      12.28482012      -0.44573099      -0.86096179       0.30861386
H        5.63563083       0.36893788      11.90112012       0.49001913       0.15705204       0.42171323
H        5.72942083      14.56142688      13.13652012       0.37767653       0.42376900      -0.14989296
O        8.49842083       7.56497688       8.61801012       0.95586347       0.85093402      -1.12692582
H        8.28484083       7.02100688       9.42651012      -0.88513279      -1.14870397       0.79386984
H        7.80083083       7.48670688       7.84672012      -0.59740189      -0.12092848       0.20494060
O        8.96539083      11.35442688       2.05933012      -1.12360643      -0.82281280      -0.65759755
H        8.96361083      10.57462688       2.76341012       0.32606681       0.30058292       0.17950303
H        9.71334083      11.97922688       2.31053012       1.07601712       0.37119178       0.51962578
O        8.03049083       8.85696688      12.75772012      -0.58671462      -0.95743707      -1.38045620
H        8.19696083       9.82701688      12.89162012       0.17213561       2.27982622       0.73282783
H        8.55319083       8.34998688      13.47552012       0.31339042      -0.52407050       0.72671048
O       12.24943083       7.71725688      11.21932012       1.00416333      -0.93382772       1.66496165
H       11.31183083       8.11947688      11.21602012      -0.83988391       0.36195285      -0.47369383
H       12.63073083       7.83087688      10.27972012       0.32819925       0.26232404      -1.07659136
O        1.70543083       5.62712688       3.18581012       1.89991317      -1.01785719       0.46801802
H        1.67897083       6.11456688       4.11105012      -0.49436292       0.36755472      -0.22383956
H        1.01289083       6.08330688       2.64598012      -1.32669947       0.98937048      -0.99663282
O        5.02183083       6.86233688       0.51149312       0.15362667       0.67254924       0.47630403
H        5.19690083       7.01195688      14.10272012       0.26142061       0.32935304      -0.73754544
H        4.75799083       5.89019688       0.44381612      -0.51309376      -1.48381556       0.39435359
O        0.82682083       3.10739688       0.57430812      -0.46924614       1.08010942      -0.28596355
H        1.28350083       2.19288688       0.62422212       0.62479546      -1.19444475       0.07150879
H        0.59068283       3.34162688       1.55968012      -0.36866543       0.24802211       0.46617468
O        7.85215083      11.37702688      14.11772012       3.35094943      -2.06046428      -1.87642182
H        8.44386083      11.17332688       0.38441212      -0.53459837       0.40240648       0.20078345
H        7.06410083      11.88752688      14.33192012      -2.05801467       1.91223349       1.42942199
O        1.08069083       4.24733688       8.85163012      -0.32853166       3.60562210      -0.64747415
H        0.07293869       4.22273688       8.95741012      -1.04874772      -0.11913310      -0.23566695
H        1.34280083       3.35190688       9.07066012       1.29946011      -3.51627149       0.68915504
O       12.86173083      10.72072688       7.51144012       0.03335727      -1.02420030       2.88647309
H       11.90733083      10.41072688       7.76658012      -0.18150051       0.28260050      -0.52376749
H       12.93173083      11.14232688       6.62112012      -0.34153674       0.90364072      -2.69469566
O       13.33103083       7.28382688      13.77762012       0.69717940      -0.27786304       2.89239966
H       12.94343083       7.30514688      12.87232012      -1.16661856       0.12846387      -2.65009030
H        0.38472883       8.05202688      13.74012012       0.46952226       0.17346838       0.01862388
O        1.64305083      11.93172688       8.28727012      -1.76393547       2.59353385      -0.34989648
H        2.11175083      11.09072688       8.41753012       1.11054111      -2.45703501       0.49462205
H        0.68982083      11.66812688       7.92791012       0.27523986      -0.14718262       0.36225242
O        1.90822083      10.05777688      13.49442012      -0.02746136       0.48214873       1.20195947
H        2.59257083       9.53355688      12.93272012       0.29979837      -0.10929401      -0.55219892
H        1.23937083      10.38392688      12.79772012      -0.77758113       0.58686536      -0.85347945
O        8.44649083       2.18039688       2.83328012      -0.43325515      -1.75276273      -0.10594852
H        8.10232083       2.82630688       2.14734012      -0.31102320       1.16486658      -0.62714011
H        9.42815083       2.35050688       3.03491012       0.49521008       0.45209491       0.09074338
O        4.89961083      10.27152688       9.82620012      -0.52930393      -0.52884975       0.29903262
H        4.80535083      11.29132688       9.94355012       0.22075362       0.74002255       0.01275194
H        5.87517083      10.05265688       9.68240012       0.95575534       0.16376845      -0.39096386
O        1.22614083       1.48021688       8.99934012      -0.66979680       1.59765002       1.35605235
H        1.69455083       0.61289888       9.12715012       0.95044776      -1.75503635      -0.23172883
H        0.92259183       1.52902688       8.03552012      -0.23361943      -0.36611783      -1.39249110
O       12.42833083       1.11921688      13.55252012       1.30098956      -0.23724659       0.73296111
H       11.60913083       1.13685688      12.94382012      -1.22746037      -0.16656815      -0.80730293
H       12.39543083       2.03728688      13.97772012       0.35033548       1.15179317       0.10214141
O        7.99797083       3.31293688       5.35612012      -1.86464338      -0.36008253       1.73128625
H        7.69581083       3.86263688       4.54299012      -0.08351067       0.31427393      -0.03834548
H        8.90317083       3.01500688       5.06917012       1.73494942      -0.36960568      -0.40519457
O        9.23084083       2.60197688       9.49023012       0.75142188       0.96984232       2.34624662
H        9.63939083       2.60236688       8.59170012       1.09604815      -0.02743074      -1.88466815
H        8.35404083       2.14899688       9.34525012      -1.39897902      -0.47384404      -0.41849564
O        9.39101083      11.82242688      11.29022012      -1.92655398      -1.83570068       0.07826504
H        9.89953083      10.98812688      10.95742012       0.20383143      -0.25313774      -0.24496315
H       10.09423083      12.50692688      11.46802012       1.58154740       1.40053540       0.40257667
O       10.91173083      12.62902688       8.95106012       0.62391508      -0.56895702       1.59332530
H       11.31433083      12.80722688       8.05238012       0.27621640       0.31840230      -1.27657481
H        9.94251083      12.93672688       8.93776012      -0.69529957       0.17539425      -0.46570901
O        6.51002083       4.17294688       1.63557012       2.94730498       0.65465153       2.29778709
H        5.63163083       3.95940688       1.29471012      -3.07803026      -0.97577637      -1.47435362
H        7.16398083       4.13135688       0.84655812       0.14259491       0.15276989      -0.88997605
O       12.95243083       3.91820688       2.81623012       0.20543881      -0.80221589       1.11484209
H       12.63413083       4.72489688       2.23615012       0.12612041       0.60458994       0.29966926
H       13.36403083       4.35553688       3.71096012      -0.27656136      -0.40806153      -1.27125237
O        8.47706083       3.92633688      14.33632012       0.05423650       0.66278862       0.93479208
H        8.62036083       2.92051688      14.23185482       0.05711899      -0.95905894      -0.25142841
H        8.85146083       4.37900688      13.50712012       0.21390261       0.15461633      -0.96643382
O        1.87187083       6.90090688      11.76722012       0.24340394       2.33532830       1.77032192
H        1.78213083       7.08518688      10.79252012      -0.47442318      -0.67071839      -1.76925131
H        1.92094083       5.92817688      11.98942012       0.03184924      -1.69424390      -0.09937237
O        7.57473083      13.69512688       2.81223012      -1.61547420       1.15559848       1.27491302
H        7.59982083      12.85422688       2.29176012       0.46744574      -1.60296417      -1.12732049
H        8.43812083      14.17462688       2.63398012       1.37512788       0.49776728      -0.31120613
O        1.35089083       9.99327688       1.44916012      -0.23273823      -0.49299662       0.95471047
H        2.31922083       9.64577688       1.72690012      -0.27102209      -0.09738978       0.09149287
H        1.47930083      10.13292688       0.40813012      -0.03424469      -0.13389314      -0.06036452
O        3.83383083       4.10951688       3.67813012      -1.14833640      -0.56726766       0.71991621
H        4.53193083       4.56833688       3.13578012       1.15492158       0.92523319      -0.68517204
H        2.94717083       4.72213688       3.57054012       0.39444690      -0.36641513      -0.53907205
O        1.29309083       0.68021488       3.75613012      -1.50752763      -1.01626265       0.91929497
H        0.84798283       0.80693688       2.85523012      -0.33510061       0.29142421      -0.70368816
H        2.27300083       0.87054288       3.58809012       1.66352518       0.55980862      -0.30245126
O        7.81469083       1.20881688      14.55492012      -0.22124222       0.47201293       0.38923803
H        7.95835083       1.20995688       1.00704412       0.05541511      -0.39002008      -0.12617175
H        8.30505083       0.39329988      14.13552012       0.35286271      -0.43750650       0.08665127
O       10.28463083       1.62730688      12.13792012       1.14706833       0.21214975       1.47101082
H       10.39083083       1.91091688      11.19222012       0.18229068       0.63852861      -2.12213603
H        9.32975083       1.37731688      12.16552012      -1.96675799      -0.49822003       0.14709119
O        3.69183083       8.89730688      11.94002012       0.21169003       0.29529600       2.43080800
H        3.12684083       8.07831688      11.76912012      -0.85229940      -1.82455143      -0.17244056
H        4.20218083       9.15060688      11.14112012       1.20047021       0.92425489      -2.01063530
O        6.79102083      10.96392688       7.19001012      -0.01124665      -1.93512677      -1.55178013
H        5.85819083      11.22352688       6.86338012      -0.76090690       0.06729892      -0.22617948
H        7.06234083      11.50532688       7.98235012       0.25234296       1.29365805       1.82995637
O        4.08503083       3.99050688       0.37407012       0.60714769       0.43183099       0.62794181
H        3.18333083       3.73347688       0.75573312      -0.94316638      -0.14042755       0.45056914
H        3.96063083       3.87379688      13.93132012      -0.01814939      -0.35538844      -0.51018876
O       12.24553083      14.87292688       5.76458012      -0.94974788      -0.02663111       0.04628973
H       12.83233083       0.28023788       5.57699012       0.42600902       0.99959685       0.13649224
H       12.87663083      14.09222688       5.86627012       1.04466707      -1.04030920      -0.00517944
O        3.77738083       1.44298688       2.97604012       0.51729713      -1.48306984      -0.17729599
H        4.64323083       1.13154688       3.48478012       0.23069981      -0.19376428      -0.15617164
H        3.80573083       2.45908688       3.10959012      -0.13537120       1.19048057       0.15902079
O        4.62034083      13.39832688       9.99000012      -0.68385943      -0.83027249       0.65961437
H        5.59410083      13.46242688       9.68505012       0.74583949       0.02440321       0.23251603
H        4.61718083      13.53522688      11.04342012       0.40031704       0.38891459      -0.73700882
O       10.20053083       9.21684688       6.86654012       2.64831052      -1.16583762      -1.16824292
H        9.81527083      10.11932688       6.76330012      -1.15592044       2.53426977      -0.38868481
H        9.63254083       8.66284688       7.44254012      -1.34551610      -1.07972620       1.44884431
O        5.61905083      12.52952688       0.46357212       1.11740491       1.68923091       0.94135342
H        5.30667083      11.79512688      14.44122982      -1.39607328      -1.08154011      -0.63494579
H        4.78882083      13.00272688       0.84480012      -0.56989682       0.03116809      -0.06118103
O        0.78014983       6.91361688       5.26730012       1.00943362      -0.41696549       0.54377378
H        1.21527083       7.80652688       5.53940012       0.39058473       0.93945171       0.38616923
H       13.43063083       7.16205688       5.12938012      -1.24449923       0.45458053       0.10547438
O        2.09747083       9.32468688       6.12306012      -1.17495107      -1.08372463      -0.28281030
H        2.13805083       9.19288688       7.15646012       0.34086149       0.15034463       0.21577501
H        2.80673083      10.04404688       5.92149012       0.78767554       0.53202100      -0.24128809
O        6.54467083       0.53713188       4.07676012      -2.59392312       1.67021987       1.63837068
H        7.24347083       1.20440688       3.82305012       0.98239578       1.19383122      -0.39916035
H        6.92686083      15.07892688       3.79822012       0.78518084      -2.61605624      -0.84188231
O        6.84129083       7.70036688       2.64294012       0.37101028       0.27678644       2.00308152
H        6.87157083       7.73764688       1.65375012      -0.41263712      -0.21431286      -2.10743063
H        5.98031083       8.17300688       2.95039012      -0.23900034       0.10165364      -0.34467821
O        4.31824083       7.78039688       4.45010012      -0.35510064      -3.51985113       2.64364121
H        3.44232083       7.88925688       5.04312012       0.58382806       0.23923781      -0.22296194
H        4.30896083       8.56713688       3.90723012      -0.41565291       3.30670297      -2.12721398
O        4.09666083       3.29431688       6.36152012      -1.04275333      -0.98708527       0.49086747
H        3.81273083       3.49198688       5.39034012       0.33250186       0.33838937      -0.49167449
H        4.74109083       4.03117688       6.63365012       0.48250374       0.80915118      -0.02295590
O        2.51851083       9.25628688       8.97144012      -0.74949162       2.25126174      -0.39763742
H        3.47328083       9.52400688       9.21349012       0.79733108       0.00007135      -0.04764603
H        2.41156083       8.28598688       9.15277012      -0.02645794      -1.86818524       0.15136751
O        2.51900083      15.20812688      12.99052012      -2.22591421      -1.39221325       0.35236427
H        3.47507083      14.98312688      12.91652012       2.37751478      -0.18748369      -0.54694855
H        2.29769083       0.66152288      12.45542012      -0.21828139       0.92814400      -0.84011127
O       12.40213083       9.74350688       2.99169012      -0.89244931      -1.98639978       1.01496320
H       12.05193083      10.67692688       2.91246012      -0.42867570       1.34831136      -0.16044176
H       13.26553083       9.59584688       2.50946012       1.64909327       0.24118835      -0.96690421
O        7.65489083      15.13932688       9.38914012       0.37649200      -1.90234550       1.41077277
H        7.82004083       0.11917308       8.44684012       0.13783581       0.59407409      -0.79678628
H        7.13649083       0.41880188       9.94215012      -0.38039321       0.67454516       0.17511307
O        1.19472083       4.28521688       5.78903012       0.40287580      -0.67608211      -0.24416818
H        1.92941083       4.24099688       6.50331012       0.49799281      -0.30778398       0.43447221
H        0.93100383       5.26824688       5.87220012      -0.50353301       0.96117282       0.04310780
O        7.41930083      12.37962688       9.48219012      -2.01385607      -1.68603943      -1.80875387
H        7.52637083      13.35762688       9.58077012       0.46587013       2.64302190      -0.03244246
H        8.04163083      12.01742688      10.16262012       1.66178426      -0.84826741       1.76735712
O        7.96557083       4.59118688      11.51872012      -0.33164519       1.50481450       0.95559790
H        8.64424083       4.50174688      10.78572012       0.83816532      -0.40660553      -1.09430245
H        7.56515083       3.65725688      11.61212012       0.05759800      -0.82054787      -0.02969129
O        6.32023083       5.02922688       6.96420012      -0.53002624       0.07871028       0.20575042
H        6.63087083       5.99020688       6.78595012       0.22014039       0.18617458      -0.27695201
H        6.89082083       4.38753688       6.37357012       0.71658351       0.08763885      -0.22080832
O       12.08443083       3.12595688       7.76914012      -1.40953630       1.53442515       2.27050104
H       12.49643083       2.33612688       7.35966012       1.01146553      -1.71200601      -1.37419617
H       11.97703083       3.86143688       7.05221012       0.32415673      -0.17224920      -0.27081423
O        4.75195083       1.04879988       7.71194012       1.87051950      -1.33185422       1.63645847
H        4.28314083       1.65413688       7.09540012      -1.26654471       1.84423458      -1.69775520
H        4.07001083       0.37906988       8.03364012      -0.86665267      -0.60838448       0.13225742
O        2.71599083      13.02602688       0.64131512       1.02391944       0.60338609       1.82562913
H        2.64892083      12.44152688      14.42672012      -0.55020363      -0.95162347      -1.41055594