288
Lattice="13.739873294832897 0.0 0.0 0.0 15.516550893504647 0.0 0.0 0.0 14.707433928444985" Properties=species:S:1:pos:R:3:forces:R:3 energy=-42531.730174293 pbc="T T T"
O        2.54202502       2.29303521       2.07766573      -0.36995222      -0.03822283       0.73196418
H        2.32366502       2.95911521       2.89493573      -0.15526831      -0.22930230      -0.95640958
H        1.94058502       2.52856521       1.24234573      -0.23810431       0.16634593       0.32018906
O        1.96413502      11.25035521       0.02340373       0.16445934       0.12490582      -1.23276552
H        2.91693502      11.36265521       0.36728973       0.68884564       0.32181797       0.48781187
H        1.26535502      11.37045521       0.77377273      -0.17175867      -0.10684882       0.71235045
O        5.87467502       0.73393221      12.38033573      -0.47081595      -0.54272731      -0.40155917
H        5.97889502       0.08260901      13.17253573       0.44531826       0.08387081       0.26252947
H        5.99891502       1.61781521      12.84093573       0.23896580       1.48202923       0.31967527
O        2.89786502       4.08921521       6.48189573       0.41610894      -2.20474943      -2.06566684
H        2.88360502       4.35173521       7.43480573      -0.02394542       1.01340477       2.39158200
H        2.53962502       4.84056521       5.90512573      -0.62580363       0.90427272      -0.12320075
O        2.54600502       2.56100521      12.46253573      -1.10430486      -2.59972079       1.57683935
H        3.00937502       3.19988521      13.07583573       1.04497013       1.72102272       0.88378172
H        2.64585502       2.91634521      11.56383573       0.31293317       1.19111928      -2.66346642
O       12.17688502       4.62171521       9.83080573      -0.20721918      -0.91964308      -2.29080356
H       12.81578502       5.38012521       9.86616573       1.49436127       1.51453375       0.25555413
H       11.56468502       4.64532521      10.62863573      -0.85086713      -0.02390257       1.45570883
O        5.59714502      13.31705521       4.01397573       0.95221884      -2.19692909       0.73837278
H        4.68582502      13.68615521       3.97494573      -2.36784945       1.15359447      -0.18695599
H        6.24862502      13.96135521       3.60992573       1.25940864       1.17275986      -0.88051425
O        6.45045502       8.81395521       8.40542573      -1.90089274       1.34480746      -0.08592192
H        7.04533502       9.40512521       8.94940573       0.73159214       1.42352328       0.65975765
H        7.03101502       8.01373521       8.36078573       1.29678841      -2.45486826      -0.41944257
O        4.77421502       1.14603721       1.69746573       1.15957386      -1.57098899      -1.24969164
H        3.98357502       1.70294521       1.96813573      -2.16765378       1.32016509       0.35177900
H        5.50022502       1.45826521       2.29204573       1.45018101       0.52536542       1.29244470
O        2.76769502      11.87055521       5.65518573       0.58695051      -1.77038469      -0.49976693
H        2.88888502      12.87425521       5.50026573      -0.16333031       0.93866579       0.25585975
H        2.34198502      11.75015521       6.58102573      -0.18656730       0.31873022       0.42284129
O        8.71275502       2.21361521      11.88373573      -1.39705900       1.76484785       1.12261888
H        9.41361502       2.95590521      11.77453573       0.38700703       0.40008915       0.10590608
H        9.16270502       1.45276521      11.45093573       0.69481317      -2.09000258      -0.99833891
O       12.28588502       1.23805521      13.45883573       1.89159590      -1.66931616      -0.15491081
H       12.45978502       1.48365521      12.45433573       0.08392111       0.44883005      -0.44088288
H       11.59798502       1.85385521      13.79983573      -2.30291457       1.32276099       0.89671289
O       12.78148502       7.23736521       0.93887173      -1.43738626      -0.62616393       0.80257305
H       13.22148502       7.92758521       0.35198973       1.05883420       1.42907672      -0.94083485
H       13.42648502       6.46584521       0.91269173       0.92526641      -1.08417610      -0.19969486
O        9.18023502       7.88542521      10.53743573      -0.40193388      -0.46408358      -0.29884157
H        9.86562502       7.71078521       9.78570573       0.14279303       0.31085402      -0.66022519
H        9.13120502       8.89850521      10.64643573       0.17874986       0.69196936      -0.09225848
O       12.61358502      14.01685521       4.95184573      -1.63775002      -1.42722337      -0.89103807
H       13.31908502      14.46085521       4.39276573       1.21693112       0.77573976      -0.78971201
H       12.74398502      14.26375521       5.91288573       0.47481953       0.72928183       1.36338656
O       10.35438502       0.42084421      10.57763573      -2.05086988       1.30950233       0.31414618
H       11.02018502       1.14840521      10.79533573       1.34491802      -0.08317170       0.04409098
H       10.73288502      15.02175521      10.56143573       1.68322130      -1.95988805       0.11619943
O        1.41670502      15.18305521      11.65273573       0.16481832       1.29670580       0.21383570
H        1.67491502      14.18245521      11.75243573      -0.00641565      -1.06493289      -0.10089372
H        1.65981502      15.48435521      12.62643573      -0.11903896       0.19036306      -0.47716027
O        0.31179602       9.28412521      14.15743573      -2.26214835      -2.25169495       0.08594981
H        1.16913502       9.76230521      14.07903573       1.96424618       1.43695162       0.33036274
H       13.31738502      10.01515521      14.21483573      -0.15075024       0.68859467      -0.43719027
O        6.98411502       1.68316521       4.10898573       0.68087228      -1.94170407      -3.34444668
H        7.52174502       1.59915521       4.91050573       1.69305509      -0.31176614       2.39532622
H        6.29126502       2.31989521       4.36332573      -2.26476350       2.18268923       1.05522874
O        6.08505502      14.06795521       6.68144573      -0.84009892       0.63092588       1.35377190
H        5.90043502      13.69845521       5.74390573       0.10990036      -0.43823406      -0.90422033
H        7.10999502      14.17535521       6.73649573      -0.07919579      -0.07866964      -0.31740002
O       10.14308502       0.04639521       4.98018573      -1.69272537       1.39004568      -0.03435124
H       10.97978502      15.01665521       4.81332573       1.04521372      -0.85294123       0.00758560
H        9.64136502      15.12255521       5.77524573       0.33762174      -0.37807880      -0.16852102
O        5.83576502       4.86667521       9.67784573      -0.73587655      -1.99504585       1.52252035
H        6.20518502       5.54532521       9.07235573       0.95286727       1.58159653      -1.72986585
H        6.40622502       4.99353521      10.56983573      -0.22937853      -0.37525576      -0.62461456
O        2.20025502       1.03142421       5.90679573      -1.54952492      -0.82871307      -0.92621766
H        2.88711502       0.52640821       6.47068573       0.93101507       0.06868857       1.11170808
H        2.38808502       1.99366521       6.11457573       0.31269505       1.81230960       0.27477142
O       11.22748502      13.31805521       9.67408573      -1.03834330       1.75547681       1.99735015
H       10.81808502      12.52235521       9.25541573      -0.85909830      -1.62585207      -1.08733025
H       12.15448502      13.37475521       9.31886573       1.62121825       0.35597204      -0.56535812
O        6.57092502       3.58202521      13.11603573      -2.11045288      -0.49467056       1.98477830
H        7.32214502       3.03745521      12.75583573       1.68590936      -0.98744634      -0.79713472
H        6.67390502       4.51220521      12.73643573      -0.02559658       0.78387240      -0.52317474
O        7.66295502      14.47795521      11.07733573       1.11314998      -0.73210729      -0.94278798
H        8.40708502      14.75965521      11.71673573       0.28954136       0.27998265       0.32752992
H        6.83182502      14.89525521      11.45993573      -1.00087510       0.44581402       0.56621749
O        0.00681173      14.12135521       8.88980573      -0.18450650      -1.22104533       0.08065455
H        0.04703162      14.97485521       8.31461573      -0.05381836       0.49490060      -0.58490838
H        0.49498402      14.28035521       9.75718573       0.47356657       0.25183887       0.95436550
O        1.97508502      12.55935521      12.06353573      -0.72845644       2.19918778       1.23741651
H        2.00670502      12.26835521      13.04873573      -0.02564631      -0.41881518       0.26829360
H        2.25620502      11.83575521      11.44863573       0.61794592      -1.87037138      -1.55498701
O        4.87327502      10.90885521      12.30713573       0.02046287      -2.39072427      -0.15108611
H        4.35631502      11.02375521      11.43753573      -0.41862698      -0.27070559      -0.56141897
H        5.05852502      11.85535521      12.49963573       0.45301304       2.59070514       0.82870046
O        2.92890502      14.32875521       4.70274573       1.44786994      -0.78556669       0.28368995
H        2.18183502      14.11335521       4.05682573      -0.74372218      -0.15249394      -0.98843340
H        2.69206502      15.29855521       4.92151573      -0.01868630       0.91873562      -0.17087285
O       10.63338502       8.25440521       7.79139573       0.46577102      -2.14432001       1.91003501
H       10.78378502       7.55621521       7.06153573       0.02411437       0.00126329      -0.40103223
H       10.46558502       9.13080521       7.38085573      -0.41155167       1.55837423      -1.06035275
O        4.99099502       8.45932521       3.90819573       2.29998883      -0.20235066      -1.06355277
H        4.59138502       8.48378521       4.82782573      -1.00186800      -0.09843806       1.41130677
H        4.29638502       8.54439521       3.15747573      -1.01773814       0.17246726      -0.30983136
O        9.27330502       6.83053521      12.88753573      -0.43874140      -1.93285358       0.86057033
H        9.54777502       7.38660521      13.69173573       0.21548434       0.38145904       0.45844389
H        9.45208502       7.22657521      11.96793573       0.52615459       1.47086157      -1.00512125
O        2.36085502       5.78106521       1.44685573       0.12158553       2.52843456      -1.46725465
H        3.13064502       5.35197521       0.90980973      -0.08463904      -0.67481741       0.27924830
H        2.00880502       5.18414521       2.15880573      -0.38662253      -1.45898006       1.12662734
O       12.17188502      10.55835521       6.57622573       2.34167494      -0.83893803      -1.04834813
H       11.79578502      11.03225521       5.74679573      -0.88009863       0.33737712      -0.15512927
H       11.57278502      10.57975521       7.37031573      -1.17303991       0.71466927       1.06292589
O       12.97118502       1.40175521      10.97893573      -0.70510741       0.34709930       0.46448953
H       13.03348502       1.86559521      10.04894573      -0.11709150       0.16720399      -0.65252570
H        0.12945385       1.00508521      11.19143573       1.19546551      -0.86108304       0.19490432
O        7.98484502      14.30455521       2.98134573      -1.16163304      -1.47050053      -1.57611860
H        8.40845502      14.95535521       3.58336573       1.35422152       1.51731882       1.42975703
H        8.53451502      13.41995521       3.07261573      -0.06397791      -0.00788694      -0.09924155
O        3.78640502       4.41778521      14.16633573      -0.23433959      -2.05780071       0.94572998
H        3.83984502       5.33662521      13.78563573       0.18288370       2.00771199      -1.03125791
H        4.71698502       3.99844521      14.01583573       0.68820467      -0.04688520      -0.01478104
O        0.77156602       9.76671521       4.52984573      -0.33210062      -1.67649306      -2.05338513
H        0.19184942      10.14553521       5.22778573      -1.46768930       0.99262235       1.58622807
H        1.67441502      10.09600521       4.78525573       1.74943924       0.77563121       0.40620300
O        3.01989502       4.45887521       9.36296573      -0.14802228      -0.20831706      -0.21070758
H        2.97551502       3.37044521       9.25900573       0.14806245       1.07068261       0.66436967
H        3.99911502       4.75017521       9.63569573       0.04431965      -0.38372888      -0.23485408
O       10.61048502      14.94575521       1.14749573       0.76863544      -1.21055710       1.76304099
H        9.85445502      14.95455521       0.52140473      -1.58080512       0.01800403      -1.56128758
H       11.45328502      14.71745521       0.61633873       0.38905945      -0.38932017      -1.03841557
O        6.79090502      10.80955521       4.44406573       0.77879987      -1.52301523       0.74644437
H        6.34455502      11.68695521       4.23392573      -1.23057234       1.47139997      -0.11619974
H        6.07808502      10.15955521       4.82986573      -0.37735577      -0.00187849      -0.48239325
O       10.79748502       5.52772521       4.24244573      -0.73702794       0.70752626      -0.45942765
H       11.01428502       4.69477521       4.78229573       0.42439244      -0.68734625       0.41355167
H       11.68848502       6.04211521       4.13707573       0.34985696       0.03913405       0.25230132
O        8.80080502      11.37095521       2.77113573       0.57799888       1.09283768       0.27894691
H        8.70364502      10.95415521       1.85421573       0.10365639      -0.45274022      -0.95294099
H        8.03062502      10.98795521       3.34167573      -0.35822082      -0.44620304       0.21683353
O        1.14619502      14.05725521       0.09615793      -2.08997453       1.69181192      -0.20336846
H        1.92824502      14.70625521       0.03977773       0.75585835       0.56825369      -0.28292379
H        1.47602502      13.20235521       0.43001373       1.19391208      -2.20548847       0.65081164
O        2.72879502      11.07755521       9.87296573       0.47727371      -1.05778515       1.05828156
H        3.59707502      11.55665521       9.57547573       0.39808784       0.39260286      -0.49244365
H        2.01158502      11.39375521       9.19161573      -0.41029122       0.15475229      -0.43764965
O        4.32546502       0.47338721       7.53343573      -2.32555336       0.43962741      -0.08202577
H        4.88128502      15.34655521       6.98733573       1.54798970      -0.91238177      -0.31704157
H        4.88630502       1.02447321       8.18596573       1.34134652       0.28923003       0.54114859
O        7.86584502       6.55007521       7.70283573      -2.11620801       1.22246264       1.14259846
H        8.12911502       7.01375521       6.84848573       0.52258637       0.12934846      -1.16372083
H        8.36962502       5.69675521       7.81770573       1.40520787      -1.50643374       0.04769616
O        1.16694502       8.18109521       7.34067573       2.09201621      -0.02662402       0.30555297
H        0.24321702       8.42264521       7.09000573      -2.04164940       0.53030095      -0.39188385
H        1.12268802       7.82127521       8.32586573      -0.14770980      -0.49793716       0.20601109
O        1.38810502       7.71654521      12.11573573      -1.54431804      -0.21045499      -1.34021649
H        2.26207502       7.56507521      12.56283573       1.79446682      -0.55200022       0.74308766
H        1.01614202       8.36118521      12.81363573      -1.22413634       0.63489127       0.22702162
O        8.06126502      11.04815521      12.85073573      -0.47472299       0.37802922      -0.72302589
H        8.70831502      10.74535521      13.58633573      -0.02408503      -0.29390474       0.61272861
H        7.12282502      11.22545521      13.25503573       0.26192767      -0.22349680       0.29510824
O        3.09507502       8.65269521       1.86506573      -1.51135976       1.43883690       2.52409736
H        2.78634502       7.70423521       1.88816573      -0.81912417      -2.03627101      -0.07674886
H        3.70676502       8.72842521       1.09589073       1.15702048       0.32800106      -1.88053353
O       13.71908502      11.24345521       2.03289573       0.46171724       0.74803611      -1.26199276
H       12.85328502      11.39205521       2.55064573      -0.99219595       0.35269914       1.01936184
H        0.43472302      10.48995521       2.52474573       0.39647256      -0.84773981       0.89453839
O       11.35818502      11.83305521       3.82569573       0.82377245      -1.56318324      -0.31447608
H       11.64938502      12.68135521       4.29339573       0.40749308       1.25648430       0.36875513
H       10.42008502      11.96845521       3.44064573      -0.76601860      -0.18459541      -0.17234734
O       12.71968502       2.31554521       8.58003573       2.16028968       0.15760851       0.47603593
H       12.62518502       3.31625521       8.83081573       0.10654074       0.77267973       0.33112328
H       11.91848502       2.17974521       7.99468573      -1.90957795      -0.23254719      -1.15694223
O        1.04567602      11.79935521       7.88953573       0.12924602       0.52692580       0.26337712
H        0.33058902      12.56675521       8.07153573       0.38954328      -0.05738849       0.02436618
H        0.54747702      10.97675521       7.57533573      -0.85310392      -0.69345642      -0.28008637
O        8.89535502       7.64650521       5.14286573      -1.80836505       1.42758853       0.28916479
H        9.64850502       7.03474521       4.98183573       2.12652788      -1.88895537      -0.40693109
H        8.40574502       7.59772521       4.22813573      -0.18055146       0.00815265      -0.16166712
O       13.44948502       4.68329521      12.73653573      -0.95799780       0.21276366      -0.71869168
H        0.24716602       5.55855521      12.72213573       0.31931412       0.40696239       0.04871684
H        0.08022412       4.09654521      13.48343573       0.41383193      -0.26017974       0.85141609
O       12.14728502      11.41075521      14.31473573      -0.84428383      -2.20274035      -1.42753736
H       12.39768502      11.59175521       0.53742373       0.60205852       0.45969855       2.20198636
H       12.00978502      12.32505521      13.90873573      -0.15549937       1.42501543      -0.91567100
O        8.59405502      13.13795521       6.20826573       0.21300813       0.03005770      -1.84853526
H        8.45689502      12.10935521       6.21223573       0.17638089       0.41688348       0.10083106
H        8.66987502      13.41475521       7.16254573       0.57558549       0.07068574       1.85531240
O       10.56558502       1.95443521       7.12149573      -0.13391768       1.90207845       3.10456796
H       10.02795502       1.31663521       7.73816573      -0.71117058      -0.53607777      -0.06946999
H       10.55038502       1.61442521       6.22009573      -0.04850672      -1.57580266      -3.34360344
O       13.03418502       7.40649521       3.71240573      -1.10855995      -2.50230956       1.16203402
H       13.46168502       8.28716521       3.75552573       1.12180712       2.39172320       0.12858580
H       12.76788502       7.26114521       2.73629573       0.16447296       0.31517375      -0.94711420
O        8.42800502       2.70839521       1.70138573       0.41749837      -0.09700524      -1.89833230
H        7.97699502       2.23061521       2.43702573      -1.03682449      -1.10201603       2.00440926
H        8.44931502       3.66201521       2.00553573       0.09759763       1.21168700       0.42891817
O       12.44328502      14.02515521      13.41553573      -1.32369026      -0.27791568      -0.53504305
H       12.32948502      15.03535521      13.14133573      -0.17640943      -0.11819141       0.27457587
H       13.36978502      14.00565521      13.82513573       1.14974107       0.10007875       0.29881416
O       12.46468502       2.70467521       4.41256573      -0.84757219       3.71089470       0.12753981
H       12.88838502       1.88692521       4.70237573       1.24199754      -2.74115156       0.98376254
H       11.76208502       2.39849521       3.71626573      -0.03317158      -0.61415406      -0.67037659
O        5.00114502      12.18625521       0.40124773       0.12873251      -1.56771405      -1.75833026
H        4.82429502      12.18725521       1.38329573      -0.20159498       0.55910697       1.74289599
H        5.18447502      13.10635521       0.00959073       0.14050436       0.71485010       0.40841098
O        3.68797502       7.23124521      13.35973573      -0.17352170      -1.49964150      -0.80339920
H        4.12173502       7.19022521      12.41053573       0.32928241       0.07017010      -0.15640892
H        4.33037502       7.83311521      13.85543573       0.86788629       1.08190210       0.68940944
O        4.84862502       9.29778521       0.09559243      -0.57953455      -2.77751707      -0.00354302
H        4.70612502      10.12494521      14.29213573       0.36726104       2.35215459      -1.23932147
H        5.64763502       9.26943521       0.68846873       1.39911734       0.69261970       0.64696556
O       11.68588502       1.45240521       2.21036573       1.47523614       2.13526068       0.74853951
H       11.23298502       0.59851921       1.89394573      -0.84908048      -0.45773817      -0.45221298
H       11.65708502       2.13768521       1.41115573       0.02291311      -0.56854622       0.44351175
O        9.85744502      11.29445521       8.35483573       1.86821775       0.27953969       1.62780449
H        9.41651502      11.06045521       7.49616573      -0.94269498      -0.54874402      -1.49020885
H        9.11441502      11.56105521       9.04328573      -0.42889355      -0.36365009       0.41044461
O        6.97207502       5.86880521      11.87523573       1.04388214      -2.05034942       2.29216548
H        6.68287502       6.54684521      11.26993573      -1.20007091       3.24488714      -2.09809948
H        7.89797502       6.18337521      12.28083573       0.03116432       0.39351017       0.35296194
O        1.51979502       6.27563521       5.28598573       1.16678417      -0.53403256       0.35516637
H        0.75891802       6.65844521       4.74137573      -1.02441031       0.55164669      -0.74371506
H        1.52647502       6.84276521       6.16037573      -0.09749092       0.33936439       0.35076857
O       13.35998502       0.24728451       6.87065573       0.85115838      -1.99049445      -1.83734699
H       13.07778502       0.96806221       7.48350573      -0.00490545       2.10551529       1.04049250
H        0.61557202       0.40741221       6.51319573      -0.38039753       0.68964295       0.27925293
O        2.70444502       1.80754521       9.40214573      -0.68471322       0.41434074       0.59896976
H        3.09990502       1.31834521       8.61026573       0.32467271      -0.88477910      -0.79147774
H        2.35326502       1.07711121      10.03510573      -0.08440336      -0.38490981       0.40553311
O        7.25283502       7.44250521       2.47443573       3.31577349       1.01713306       0.24511797
H        6.91030502       6.83849521       1.78552573      -1.23115660      -1.43735217      -1.26962608
H        6.54704502       7.79251521       3.08600573      -2.27419518       0.43476848       1.00576754
O        4.24464502       8.75879521       6.49234573       0.27798957      -0.26461076      -0.77685572
H        3.31872502       8.81684521       6.88365573      -1.17278017       0.05608170       0.41094724
H        4.86450502       9.01218521       7.25527573       0.71561067       0.18340861       0.67975504
O       10.00732502       6.95556521       0.90478873      -0.40899270       0.29237236      -1.83843582
H        9.68518502       6.69054521       1.78992573      -0.87570655      -0.69290263       2.25923924
H       11.02318502       7.00845521       1.00305073       1.04060910      -0.02822401      -0.07049033
O        4.87405502      13.78145521      12.59203573       3.49314135      -1.30213679       0.48325422
H        4.05465502      13.64485521      12.07763573      -2.60101393       0.33121980      -0.73998631
H        4.83693502      14.47635521      13.34153573      -1.39874720       0.11307731      -0.12057855
O        6.03391502       1.54295521       9.51194573      -0.40059473      -2.85998748      -0.22537231
H        6.18203502       2.51190521       9.66704573       0.14031159       1.77773862       0.82226530
H        5.76138502       1.00524821      10.40793573       0.38539273       1.35394569      -0.71450858
O        8.87228502      10.23455521       6.15743573       1.64733050      -0.53890011       0.75652502
H        8.03667502      10.48225521       5.68024573      -1.84268666       0.19402619      -1.23552087
H        9.12383502       9.29253521       5.77408573      -0.15254127      -0.11820742      -0.25529301
O        4.62304502       8.05370521      10.51333573      -1.20129570      -0.29096904       1.31279284
H        5.23778502       8.44108521       9.79778573       0.56815017       0.41705012      -0.81454849
H        3.93778502       8.82256521      10.73133573       0.34436652      -0.31895989      -0.34949037
O        3.34517502      11.61745521       2.78370573       0.59822356       2.19350720      -1.43232419
H        3.52921502      11.56855521       3.76371573       0.07280584      -0.43076408       1.63486328
H        2.95497502      10.75325521       2.50307573      -0.63323966      -1.95427100      -0.14362346
O        8.04743502      11.87615521      10.19833573      -0.65900174      -0.41765713       0.14715269
H        8.12930502      12.90605521      10.36643573      -0.28677136       0.20803532       0.32330491
H        7.93576502      11.48145521      11.19023573       0.44470101       0.26498008      -0.36127017
O        6.39691502      14.95455521       0.45753473      -0.36464502      -0.14786628      -1.67581955
H        5.93751502       0.23205871       0.93639273      -0.30982351       0.09419668       0.00437507
H        7.05153502      14.60615521       1.13526673       0.97214438      -0.53155419       0.97871399
O        0.70343302       2.52602521      14.58173573       1.12036944       1.16735060       1.12924189
H       13.56148502       2.07642521      14.30173573      -0.62882825      -0.89944250      -0.61628454
H        1.29360502       2.67304521      13.73613573      -0.30446374      -0.49757607      -0.44481221
O       10.66868502       4.40904521      12.03683573       0.85108965      -1.60583744      -0.16884473
H       11.57708502       4.59190521      12.56643573      -0.12957191       0.25078895       0.02910872
H       10.01667502       5.15760521      12.18923573      -0.49782063       1.37874047       0.79386860
O        1.34423502       4.23812521       3.49719573       1.35371611      -0.97517189      -2.16965974
H        1.52610502       4.87191521       4.22635573       0.06912342       1.48176692       2.10243606
H        0.44738702       3.82982521       3.60153573      -2.11085606      -0.82960465       0.60186484
O        3.30091502       0.11031721      14.07063573      -0.26856879      -0.49060108      -0.47970387
H        3.39707502       1.06149721      13.68963573       0.05132219       0.39486892      -0.20500018
H        3.68472502       0.13623831       0.30130873       0.57254287       0.44341791       0.98504031
O       10.43208502       2.66454521       0.03094173       2.86846021      -1.30627455      -0.15544912
H        9.81997502       2.30834521       0.74575373      -1.46959516       0.00340990       0.83651074
H       10.05103502       3.40137521      14.23263573      -1.49669874       1.94624167      -1.18416028
O        8.77134502       0.08542901       8.50973573       0.75774018      -0.78395895      -3.94463444
H        9.41991502      15.46535521       9.24875573       1.25969022      -0.18415003       1.39537527
H        7.95059502       0.30267921       8.98667573      -2.53124039       0.86371199       1.31648819
O        5.32630502       3.68199521       5.25126573       1.48498596      -1.46788091      -1.12075344
H        5.70518502       4.60586521       5.24996573       0.49700205       1.30281692       0.03116225
H        4.41048502       3.78081521       5.65612573      -1.52760037       0.20746151       0.94642878
O        9.68216502       4.52574521       8.16637573      -2.98232613       0.40923728      -1.18273250
H        9.78241502       3.61379521       7.72199573       0.58217956      -0.70275334      -0.18825554
H       10.46488502       4.76035521       8.69918573       2.46483862       0.22175843       1.29593240
O        1.00506502      15.08225521       2.94286573      -0.40841103       0.60805429       0.70628391
H        0.82997202      14.54765521       2.08611573      -0.23363523       0.05744691      -0.80494784
H        0.95984402       0.58971621       2.67845573       0.17309085      -0.62463990      -0.10777825
O        5.11877502      12.47535521       9.19623573      -2.58436463      -0.28155415       0.14335851
H        5.97186502      12.29585521       9.65303573       2.26003242      -0.25925006       0.74098593
H        5.27010502      13.06225521       8.38531573       0.55889788       0.56380317      -0.88536486
O        9.35517502       9.61034521       0.36217673      -0.63266296       4.48240220      -1.83323656
H       10.34488502       9.63767521       0.21649113       1.36042980      -0.08194688       0.05485410